
Host: Xiaos-MacBook-Pro.local

Timers On : Mon Mar 16 18:34:57 2015
Timers Off: Mon Mar 16 18:34:58 2015

Wall Time:        1.00 seconds

JK: (A|mn)  :       0.00u       0.00s       0.00w      1 call
JK: (A|Q)^-1/2:       0.07u       0.00s       0.00w      1 call
JK: (Q|mn)  :       0.00u       0.00s       0.00w      1 call
Form H      :       0.00u       0.00s       0.00w      1 call
Form S/X    :       0.00u       0.00s       0.00w      1 call
Guess       :       0.00u       0.00s       0.00w      1 call
Form G      :       0.10u       0.00s       0.00w     14 calls
JK: D       :       0.00u       0.00s       0.00w     14 calls
JK: USO2AO  :       0.00u       0.00s       0.00w      9 calls
JK: JK      :       0.00u       0.00s       0.00w     14 calls
JK: J       :       0.00u       0.00s       0.00w      9 calls
JK: J1      :       0.00u       0.00s       0.00w      9 calls
JK: J2      :       0.00u       0.00s       0.00w      9 calls
JK: K       :       0.00u       0.00s       0.00w      9 calls
JK: K1      :       0.00u       0.00s       0.00w      9 calls
JK: K2      :       0.00u       0.00s       0.00w      9 calls
JK: AO2USO  :       0.00u       0.00s       0.00w      9 calls
Form F      :       0.00u       0.00s       0.00w     14 calls
DIIS        :       0.00u       0.02s       0.00w     14 calls
DIISManager::add_entry:       0.00u       0.00s       0.00w     23 calls
Form C      :       0.00u       0.00s       0.00w     14 calls
Form D      :       0.00u       0.00s       0.00w     14 calls
DIISManager::extrapolate:       0.00u       0.02s       0.00w     16 calls
DIISManager::extrapolate: bMatrix setup:       0.00u       0.00s       0.00w     16 calls
DIISManager::extrapolate: bMatrix pseudoinverse:       0.00u       0.00s       0.00w     16 calls
DIISManager::extrapolate: form new data:       0.00u       0.00s       0.00w     16 calls
DCFTSolver::rhf_guess:       0.00u       0.02s       0.00w      1 call
DCFTSolver::update_rhf_density:       0.00u       0.00s       0.00w     15 calls
DCFTSolver::mp2_guess():       0.00u       0.02s       0.00w      1 call
DCFTSolver::transform_integrals():       0.08u       0.22s       0.00w     15 calls
DCFTSolver::build_denominators():       0.00u       0.00s       0.00w     15 calls
DCFTSolver::build_tau():       0.00u       0.00s       0.00w     14 calls
DCFTSolver::refine_tau():       0.00u       0.00s       0.00w     14 calls
DCFTSolver::transform_tau():       0.00u       0.00s       0.00w     14 calls
DCFTSolver::process_so_ints:       0.02u       0.00s       0.00w     14 calls
DCFTSolver::half_transform:       0.00u       0.00s       0.00w     28 calls
DCFTSolver::compute_scf_energy:       0.00u       0.00s       0.00w     14 calls
DCFTSolver::build_intermediates():       0.02u       0.03s       0.00w     14 calls
DCFTSolver::compute_lambda_residual():       0.00u       0.00s       0.00w     14 calls
DCFTSolver::update_lambda_from_residual():       0.02u       0.00s       0.00w     14 calls
DCFTSolver::compute_dcft_energy():       0.02u       0.00s       0.00w     14 calls
DCFTSolver::orbital_optimization:       0.07u       0.03s       0.00w     14 calls
DCFTSolver::correct_mo_phases():       0.00u       0.00s       0.00w     14 calls
DCFTSolver::compute_R_AA_and_BB:       0.00u       0.00s       0.00w      9 calls

***********************************************************

Host: Xiaos-MacBook-Pro.local

Timers On : Mon Mar 16 18:42:12 2015
Timers Off: Mon Mar 16 18:42:14 2015

Wall Time:        2.00 seconds

JK: (A|mn)  :       0.02u       0.00s       0.00w      1 call
JK: (A|Q)^-1/2:       0.07u       0.00s       0.00w      1 call
JK: (Q|mn)  :       0.00u       0.00s       0.00w      1 call
Form H      :       0.00u       0.02s       0.00w      1 call
Form S/X    :       0.00u       0.00s       0.00w      1 call
Guess       :       0.00u       0.00s       0.00w      1 call
Form G      :       0.12u       0.00s       0.00w     14 calls
JK: D       :       0.00u       0.00s       0.00w     14 calls
JK: USO2AO  :       0.00u       0.00s       0.00w      9 calls
JK: JK      :       0.00u       0.00s       0.00w     14 calls
JK: J       :       0.00u       0.00s       0.00w      9 calls
JK: J1      :       0.00u       0.00s       0.00w      9 calls
JK: J2      :       0.00u       0.00s       0.00w      9 calls
JK: K       :       0.00u       0.00s       0.00w      9 calls
JK: K1      :       0.00u       0.00s       0.00w      9 calls
JK: K2      :       0.00u       0.00s       0.00w      9 calls
JK: AO2USO  :       0.00u       0.00s       0.00w      9 calls
Form F      :       0.00u       0.00s       0.00w     14 calls
DIIS        :       0.00u       0.00s       0.00w     14 calls
DIISManager::add_entry:       0.00u       0.00s       0.00w     23 calls
Form C      :       0.00u       0.00s       0.00w     14 calls
Form D      :       0.00u       0.00s       0.00w     14 calls
DIISManager::extrapolate:       0.00u       0.00s       0.00w     16 calls
DIISManager::extrapolate: bMatrix setup:       0.00u       0.00s       0.00w     16 calls
DIISManager::extrapolate: bMatrix pseudoinverse:       0.00u       0.00s       0.00w     16 calls
DIISManager::extrapolate: form new data:       0.00u       0.00s       0.00w     16 calls
DCFTSolver::rhf_guess:       0.00u       0.00s       0.00w      1 call
DCFTSolver::update_rhf_density:       0.00u       0.00s       0.00w     15 calls
DCFTSolver::mp2_guess():       0.00u       0.02s       0.00w      1 call
DCFTSolver::transform_integrals():       0.07u       0.18s       1.00w     15 calls
DCFTSolver::build_denominators():       0.00u       0.00s       0.00w     15 calls
DCFTSolver::build_tau():       0.00u       0.00s       0.00w     14 calls
DCFTSolver::refine_tau():       0.00u       0.00s       0.00w     14 calls
DCFTSolver::transform_tau():       0.00u       0.00s       0.00w     14 calls
DCFTSolver::process_so_ints:       0.03u       0.00s       0.00w     14 calls
DCFTSolver::half_transform:       0.00u       0.00s       0.00w     28 calls
DCFTSolver::compute_scf_energy:       0.00u       0.00s       0.00w     14 calls
DCFTSolver::build_intermediates():       0.02u       0.02s       0.00w     14 calls
DCFTSolver::compute_lambda_residual():       0.00u       0.00s       0.00w     14 calls
DCFTSolver::update_lambda_from_residual():       0.03u       0.02s       0.00w     14 calls
DCFTSolver::compute_dcft_energy():       0.00u       0.00s       0.00w     14 calls
DCFTSolver::orbital_optimization:       0.07u       0.05s       0.00w     14 calls
DCFTSolver::correct_mo_phases():       0.00u       0.00s       0.00w     14 calls
DCFTSolver::compute_R_AA_and_BB:       0.00u       0.00s       0.00w      9 calls

***********************************************************

Host: Xiaos-MacBook-Pro.local

Timers On : Mon Mar 16 18:51:40 2015
Timers Off: Mon Mar 16 18:51:41 2015

Wall Time:        1.00 seconds

JK: (A|mn)  :       0.00u       0.00s       0.00w      1 call
JK: (A|Q)^-1/2:       0.08u       0.00s       0.00w      1 call
JK: (Q|mn)  :       0.00u       0.00s       0.00w      1 call
Form H      :       0.00u       0.00s       0.00w      1 call
Form S/X    :       0.00u       0.00s       0.00w      1 call
Guess       :       0.00u       0.00s       0.00w      1 call
Form G      :       0.10u       0.00s       0.00w     14 calls
JK: D       :       0.00u       0.00s       0.00w     14 calls
JK: USO2AO  :       0.00u       0.00s       0.00w      9 calls
JK: JK      :       0.00u       0.00s       0.00w     14 calls
JK: J       :       0.00u       0.00s       0.00w      9 calls
JK: J1      :       0.00u       0.00s       0.00w      9 calls
JK: J2      :       0.00u       0.00s       0.00w      9 calls
JK: K       :       0.00u       0.00s       0.00w      9 calls
JK: K1      :       0.00u       0.00s       0.00w      9 calls
JK: K2      :       0.00u       0.00s       0.00w      9 calls
JK: AO2USO  :       0.00u       0.00s       0.00w      9 calls
Form F      :       0.00u       0.00s       0.00w     14 calls
DIIS        :       0.00u       0.00s       0.00w     14 calls
DIISManager::add_entry:       0.00u       0.00s       0.00w     23 calls
Form C      :       0.00u       0.00s       0.00w     14 calls
Form D      :       0.00u       0.00s       0.00w     14 calls
DIISManager::extrapolate:       0.00u       0.00s       0.00w     16 calls
DIISManager::extrapolate: bMatrix setup:       0.00u       0.00s       0.00w     16 calls
DIISManager::extrapolate: bMatrix pseudoinverse:       0.00u       0.00s       0.00w     16 calls
DIISManager::extrapolate: form new data:       0.00u       0.00s       0.00w     16 calls
DCFTSolver::rhf_guess:       0.00u       0.00s       0.00w      1 call
DCFTSolver::update_rhf_density:       0.00u       0.00s       0.00w     15 calls
DCFTSolver::mp2_guess():       0.00u       0.02s       0.00w      1 call
DCFTSolver::transform_integrals():       0.13u       0.20s       0.00w     15 calls
DCFTSolver::build_denominators():       0.00u       0.00s       0.00w     15 calls
DCFTSolver::build_tau():       0.00u       0.00s       0.00w     14 calls
DCFTSolver::refine_tau():       0.00u       0.00s       0.00w     14 calls
DCFTSolver::transform_tau():       0.00u       0.00s       0.00w     14 calls
DCFTSolver::process_so_ints:       0.00u       0.02s       0.00w     14 calls
DCFTSolver::half_transform:       0.00u       0.00s       0.00w     28 calls
DCFTSolver::compute_scf_energy:       0.00u       0.00s       0.00w     14 calls
DCFTSolver::build_intermediates():       0.02u       0.03s       0.00w     14 calls
DCFTSolver::compute_lambda_residual():       0.00u       0.00s       0.00w     14 calls
DCFTSolver::update_lambda_from_residual():       0.00u       0.00s       0.00w     14 calls
DCFTSolver::compute_dcft_energy():       0.02u       0.00s       0.00w     14 calls
DCFTSolver::orbital_optimization:       0.05u       0.07s       1.00w     14 calls
DCFTSolver::correct_mo_phases():       0.00u       0.00s       0.00w     14 calls
DCFTSolver::compute_R_AA_and_BB:       0.00u       0.00s       0.00w      9 calls

***********************************************************

Host: Xiaos-MacBook-Pro.local

Timers On : Mon Mar 16 18:53:05 2015
Timers Off: Mon Mar 16 18:53:06 2015

Wall Time:        1.00 seconds

JK: (A|mn)  :       0.00u       0.00s       0.00w      1 call
JK: (A|Q)^-1/2:       0.08u       0.00s       0.00w      1 call
JK: (Q|mn)  :       0.00u       0.00s       0.00w      1 call
Form H      :       0.00u       0.00s       0.00w      1 call
Form S/X    :       0.00u       0.00s       0.00w      1 call
Guess       :       0.00u       0.00s       0.00w      1 call
Form G      :       0.10u       0.00s       0.00w     14 calls
JK: D       :       0.00u       0.00s       0.00w     14 calls
JK: USO2AO  :       0.00u       0.00s       0.00w      9 calls
JK: JK      :       0.00u       0.00s       0.00w     14 calls
JK: J       :       0.00u       0.00s       0.00w      9 calls
JK: J1      :       0.00u       0.00s       0.00w      9 calls
JK: J2      :       0.00u       0.00s       0.00w      9 calls
JK: K       :       0.00u       0.00s       0.00w      9 calls
JK: K1      :       0.00u       0.00s       0.00w      9 calls
JK: K2      :       0.00u       0.00s       0.00w      9 calls
JK: AO2USO  :       0.00u       0.00s       0.00w      9 calls
Form F      :       0.00u       0.00s       0.00w     14 calls
DIIS        :       0.00u       0.00s       0.00w     14 calls
DIISManager::add_entry:       0.00u       0.00s       0.00w     23 calls
Form C      :       0.00u       0.00s       0.00w     14 calls
Form D      :       0.00u       0.00s       0.00w     14 calls
DIISManager::extrapolate:       0.00u       0.00s       0.00w     16 calls
DIISManager::extrapolate: bMatrix setup:       0.00u       0.00s       0.00w     16 calls
DIISManager::extrapolate: bMatrix pseudoinverse:       0.00u       0.00s       0.00w     16 calls
DIISManager::extrapolate: form new data:       0.00u       0.00s       0.00w     16 calls
DCFTSolver::rhf_guess:       0.00u       0.00s       0.00w      1 call
DCFTSolver::update_rhf_density:       0.00u       0.00s       0.00w     15 calls
DCFTSolver::mp2_guess():       0.02u       0.03s       0.00w      1 call
DCFTSolver::transform_integrals():       0.15u       0.23s       1.00w     15 calls
DCFTSolver::build_denominators():       0.00u       0.00s       0.00w     15 calls
DCFTSolver::build_tau():       0.00u       0.00s       0.00w     14 calls
DCFTSolver::refine_tau():       0.00u       0.00s       0.00w     14 calls
DCFTSolver::transform_tau():       0.00u       0.00s       0.00w     14 calls
DCFTSolver::process_so_ints:       0.00u       0.02s       0.00w     14 calls
DCFTSolver::half_transform:       0.00u       0.00s       0.00w     28 calls
DCFTSolver::compute_scf_energy:       0.00u       0.00s       0.00w     14 calls
DCFTSolver::build_intermediates():       0.03u       0.03s       0.00w     14 calls
DCFTSolver::compute_lambda_residual():       0.00u       0.00s       0.00w     14 calls
DCFTSolver::update_lambda_from_residual():       0.00u       0.02s       0.00w     14 calls
DCFTSolver::compute_dcft_energy():       0.02u       0.00s       0.00w     14 calls
DCFTSolver::orbital_optimization:       0.05u       0.05s       0.00w     14 calls
DCFTSolver::correct_mo_phases():       0.00u       0.00s       0.00w     14 calls
DCFTSolver::compute_R_AA_and_BB:       0.00u       0.00s       0.00w      9 calls

***********************************************************

Host: Xiaos-MacBook-Pro.local

Timers On : Tue Mar 17 17:04:35 2015
Timers Off: Tue Mar 17 17:04:36 2015

Wall Time:        1.00 seconds

JK: (A|mn)  :       0.00u       0.00s       0.00w      1 call
JK: (A|Q)^-1/2:       0.08u       0.00s       0.00w      1 call
JK: (Q|mn)  :       0.00u       0.00s       0.00w      1 call
Form H      :       0.00u       0.00s       0.00w      1 call
Form S/X    :       0.00u       0.02s       0.00w      1 call
Guess       :       0.00u       0.00s       0.00w      1 call
Form G      :       0.10u       0.00s       0.00w     14 calls
JK: D       :       0.00u       0.00s       0.00w     14 calls
JK: USO2AO  :       0.00u       0.00s       0.00w      9 calls
JK: JK      :       0.00u       0.00s       0.00w     14 calls
JK: J       :       0.00u       0.00s       0.00w      9 calls
JK: J1      :       0.00u       0.00s       0.00w      9 calls
JK: J2      :       0.00u       0.00s       0.00w      9 calls
JK: K       :       0.00u       0.00s       0.00w      9 calls
JK: K1      :       0.00u       0.00s       0.00w      9 calls
JK: K2      :       0.00u       0.00s       0.00w      9 calls
JK: AO2USO  :       0.00u       0.00s       0.00w      9 calls
Form F      :       0.00u       0.00s       0.00w     14 calls
DIIS        :       0.00u       0.00s       0.00w     14 calls
DIISManager::add_entry:       0.00u       0.00s       0.00w     23 calls
Form C      :       0.00u       0.00s       0.00w     14 calls
Form D      :       0.00u       0.00s       0.00w     14 calls
DIISManager::extrapolate:       0.00u       0.00s       0.00w     16 calls
DIISManager::extrapolate: bMatrix setup:       0.00u       0.00s       0.00w     16 calls
DIISManager::extrapolate: bMatrix pseudoinverse:       0.00u       0.00s       0.00w     16 calls
DIISManager::extrapolate: form new data:       0.00u       0.00s       0.00w     16 calls
DCFTSolver::rhf_guess:       0.00u       0.00s       0.00w      1 call
DCFTSolver::update_rhf_density:       0.00u       0.00s       0.00w     15 calls
DCFTSolver::mp2_guess():       0.00u       0.02s       0.00w      1 call
DCFTSolver::transform_integrals():       0.10u       0.20s       0.00w     15 calls
DCFTSolver::build_denominators():       0.00u       0.00s       0.00w     15 calls
DCFTSolver::build_tau():       0.02u       0.00s       0.00w     14 calls
DCFTSolver::refine_tau():       0.00u       0.00s       0.00w     14 calls
DCFTSolver::transform_tau():       0.00u       0.00s       0.00w     14 calls
DCFTSolver::process_so_ints:       0.00u       0.02s       0.00w     14 calls
DCFTSolver::half_transform:       0.00u       0.00s       0.00w     28 calls
DCFTSolver::compute_scf_energy:       0.00u       0.00s       0.00w     14 calls
DCFTSolver::build_intermediates():       0.03u       0.02s       0.00w     14 calls
DCFTSolver::compute_lambda_residual():       0.00u       0.00s       0.00w     14 calls
DCFTSolver::update_lambda_from_residual():       0.00u       0.00s       0.00w     14 calls
DCFTSolver::compute_dcft_energy():       0.00u       0.02s       0.00w     14 calls
DCFTSolver::orbital_optimization:       0.05u       0.03s       0.00w     14 calls
DCFTSolver::correct_mo_phases():       0.00u       0.00s       0.00w     14 calls
DCFTSolver::compute_R_AA_and_BB:       0.00u       0.00s       0.00w      9 calls

***********************************************************

Host: Xiaos-MacBook-Pro.local

Timers On : Wed Mar 18 11:19:34 2015
Timers Off: Wed Mar 18 11:19:37 2015

Wall Time:        3.00 seconds

JK: (A|mn)  :       0.03u       0.00s       0.00w      1 call
JK: (A|Q)^-1/2:       0.08u       0.00s       0.00w      1 call
JK: (Q|mn)  :       0.00u       0.00s       0.00w      1 call
Form H      :       0.00u       0.00s       0.00w      1 call
Form S/X    :       0.00u       0.00s       0.00w      1 call
Guess       :       0.00u       0.00s       0.00w      1 call
Form G      :       0.03u       0.00s       0.00w     20 calls
JK: D       :       0.00u       0.00s       0.00w     20 calls
JK: USO2AO  :       0.00u       0.00s       0.00w     14 calls
JK: JK      :       0.03u       0.00s       0.00w     20 calls
JK: J       :       0.02u       0.00s       0.00w     14 calls
JK: J1      :       0.00u       0.00s       0.00w     28 calls
JK: J2      :       0.02u       0.00s       0.00w     28 calls
JK: K       :       0.00u       0.00s       0.00w     14 calls
JK: K1      :       0.00u       0.00s       0.00w     28 calls
JK: K2      :       0.00u       0.00s       0.00w     28 calls
JK: AO2USO  :       0.00u       0.00s       0.00w     14 calls
Form F      :       0.00u       0.00s       0.00w     20 calls
DIIS        :       0.00u       0.00s       0.00w     20 calls
DIISManager::add_entry:       0.00u       0.00s       0.00w     30 calls
Form C      :       0.02u       0.00s       0.00w     20 calls
Form D      :       0.00u       0.00s       0.00w     20 calls
DIISManager::extrapolate:       0.00u       0.00s       0.00w     23 calls
DIISManager::extrapolate: bMatrix setup:       0.00u       0.00s       0.00w     23 calls
DIISManager::extrapolate: bMatrix pseudoinverse:       0.00u       0.00s       0.00w     23 calls
DIISManager::extrapolate: form new data:       0.00u       0.00s       0.00w     23 calls
DCFTSolver::scf_guess:       0.00u       0.00s       0.00w      1 call
DCFTSolver::update_scf_density:       0.00u       0.00s       0.00w     15 calls
DCFTSolver::mp2_guess():       0.12u       0.08s       1.00w      1 call
DCFTSolver::transform_integrals():       1.45u       1.32s       3.00w     15 calls
DCFTSolver::build_denominators():       0.00u       0.00s       0.00w     15 calls
DCFTSolver::build_tau():       0.03u       0.02s       0.00w     14 calls
DCFTSolver::transform_tau():       0.00u       0.00s       0.00w     14 calls
DCFTSolver::process_so_ints:       0.30u       0.00s       0.00w     14 calls
DCFTSolver::half_transform:       0.00u       0.00s       0.00w     84 calls
DCFTSolver::compute_scf_energy:       0.00u       0.00s       0.00w     14 calls
DCFTSolver::build_intermediates():       0.15u       0.12s       0.00w     14 calls
DCFTSolver::compute_lambda_residual():       0.00u       0.00s       0.00w     14 calls
DCFTSolver::update_lambda_from_residual():       0.05u       0.03s       0.00w     14 calls
DCFTSolver::compute_dcft_energy():       0.02u       0.08s       0.00w     14 calls
DCFTSolver::correct_mo_phases():       0.00u       0.00s       0.00w     14 calls

***********************************************************

Host: Xiaos-MacBook-Pro.local

Timers On : Wed Mar 18 11:22:04 2015
Timers Off: Wed Mar 18 11:22:06 2015

Wall Time:        2.00 seconds

JK: (A|mn)  :       0.02u       0.00s       0.00w      1 call
JK: (A|Q)^-1/2:       0.07u       0.00s       0.00w      1 call
JK: (Q|mn)  :       0.00u       0.00s       0.00w      1 call
Form H      :       0.00u       0.00s       0.00w      1 call
Form S/X    :       0.00u       0.00s       0.00w      1 call
Guess       :       0.00u       0.00s       0.00w      1 call
Form G      :       0.15u       0.03s       1.00w     20 calls
JK: D       :       0.00u       0.00s       0.00w     20 calls
JK: USO2AO  :       0.00u       0.00s       0.00w     14 calls
JK: JK      :       0.02u       0.02s       0.00w     20 calls
JK: J       :       0.00u       0.00s       0.00w     14 calls
JK: J1      :       0.00u       0.00s       0.00w     14 calls
JK: J2      :       0.00u       0.00s       0.00w     14 calls
JK: K       :       0.02u       0.00s       0.00w     14 calls
JK: K1      :       0.00u       0.00s       0.00w     14 calls
JK: K2      :       0.02u       0.00s       0.00w     14 calls
JK: AO2USO  :       0.00u       0.00s       0.00w     14 calls
Form F      :       0.00u       0.00s       0.00w     20 calls
DIIS        :       0.00u       0.00s       0.00w     20 calls
DIISManager::add_entry:       0.00u       0.00s       0.00w     30 calls
Form C      :       0.00u       0.00s       0.00w     20 calls
Form D      :       0.00u       0.00s       0.00w     20 calls
DIISManager::extrapolate:       0.00u       0.02s       0.00w     23 calls
DIISManager::extrapolate: bMatrix setup:       0.00u       0.00s       0.00w     23 calls
DIISManager::extrapolate: bMatrix pseudoinverse:       0.00u       0.00s       0.00w     23 calls
DIISManager::extrapolate: form new data:       0.00u       0.02s       0.00w     23 calls
DCFTSolver::rhf_guess:       0.00u       0.00s       0.00w      1 call
DCFTSolver::update_rhf_density:       0.00u       0.00s       0.00w     15 calls
DCFTSolver::mp2_guess():       0.03u       0.03s       0.00w      1 call
DCFTSolver::transform_integrals():       0.42u       0.37s       1.00w     15 calls
DCFTSolver::build_denominators():       0.00u       0.00s       0.00w     15 calls
DCFTSolver::build_tau():       0.00u       0.00s       0.00w     14 calls
DCFTSolver::refine_tau():       0.00u       0.00s       0.00w     14 calls
DCFTSolver::transform_tau():       0.00u       0.00s       0.00w     14 calls
DCFTSolver::process_so_ints:       0.17u       0.00s       0.00w     14 calls
DCFTSolver::half_transform:       0.00u       0.00s       0.00w     28 calls
DCFTSolver::compute_scf_energy:       0.00u       0.00s       0.00w     14 calls
DCFTSolver::build_intermediates():       0.02u       0.03s       0.00w     14 calls
DCFTSolver::compute_lambda_residual():       0.00u       0.02s       0.00w     14 calls
DCFTSolver::update_lambda_from_residual():       0.02u       0.00s       0.00w     14 calls
DCFTSolver::compute_dcft_energy():       0.00u       0.02s       0.00w     14 calls
DCFTSolver::orbital_optimization:       0.18u       0.15s       0.00w     14 calls
DCFTSolver::correct_mo_phases():       0.00u       0.00s       0.00w     14 calls
DCFTSolver::compute_R_AA_and_BB:       0.00u       0.00s       0.00w     10 calls

***********************************************************

Host: Xiaos-MacBook-Pro.local

Timers On : Wed Mar 18 11:24:33 2015
Timers Off: Wed Mar 18 11:24:37 2015

Wall Time:        4.00 seconds

JK: (A|mn)  :       0.03u       0.00s       0.00w      1 call
JK: (A|Q)^-1/2:       0.07u       0.00s       0.00w      1 call
JK: (Q|mn)  :       0.00u       0.00s       0.00w      1 call
Form H      :       0.00u       0.00s       0.00w      1 call
Form S/X    :       0.00u       0.00s       0.00w      1 call
Guess       :       0.00u       0.00s       0.00w      1 call
Form G      :       0.00u       0.00s       0.00w     20 calls
JK: D       :       0.00u       0.00s       0.00w     20 calls
JK: USO2AO  :       0.00u       0.00s       0.00w     14 calls
JK: JK      :       0.00u       0.00s       0.00w     20 calls
JK: J       :       0.00u       0.00s       0.00w     14 calls
JK: J1      :       0.00u       0.00s       0.00w     28 calls
JK: J2      :       0.00u       0.00s       0.00w     28 calls
JK: K       :       0.00u       0.00s       0.00w     14 calls
JK: K1      :       0.00u       0.00s       0.00w     28 calls
JK: K2      :       0.00u       0.00s       0.00w     28 calls
JK: AO2USO  :       0.00u       0.00s       0.00w     14 calls
Form F      :       0.00u       0.00s       0.00w     20 calls
DIIS        :       0.05u       0.00s       0.00w     20 calls
DIISManager::add_entry:       0.00u       0.00s       0.00w     30 calls
Form C      :       0.00u       0.00s       0.00w     20 calls
Form D      :       0.00u       0.00s       0.00w     20 calls
DIISManager::extrapolate:       0.03u       0.00s       0.00w     23 calls
DIISManager::extrapolate: bMatrix setup:       0.00u       0.00s       0.00w     23 calls
DIISManager::extrapolate: bMatrix pseudoinverse:       0.02u       0.00s       0.00w     23 calls
DIISManager::extrapolate: form new data:       0.02u       0.00s       0.00w     23 calls
DCFTSolver::scf_guess:       0.00u       0.00s       0.00w      1 call
DCFTSolver::update_scf_density:       0.00u       0.00s       0.00w     15 calls
DCFTSolver::mp2_guess():       0.12u       0.08s       0.00w      1 call
DCFTSolver::transform_integrals():       1.50u       1.30s       2.00w     15 calls
DCFTSolver::build_denominators():       0.02u       0.00s       0.00w     15 calls
DCFTSolver::build_tau():       0.07u       0.00s       0.00w     14 calls
DCFTSolver::transform_tau():       0.00u       0.00s       0.00w     14 calls
DCFTSolver::process_so_ints:       0.35u       0.02s       0.00w     14 calls
DCFTSolver::half_transform:       0.02u       0.00s       0.00w     84 calls
DCFTSolver::compute_scf_energy:       0.00u       0.00s       0.00w     14 calls
DCFTSolver::build_intermediates():       0.17u       0.15s       0.00w     14 calls
DCFTSolver::compute_lambda_residual():       0.00u       0.00s       0.00w     14 calls
DCFTSolver::update_lambda_from_residual():       0.00u       0.03s       0.00w     14 calls
DCFTSolver::compute_dcft_energy():       0.02u       0.03s       0.00w     14 calls
DCFTSolver::correct_mo_phases():       0.00u       0.00s       0.00w     14 calls

***********************************************************

Host: Xiaos-MacBook-Pro.local

Timers On : Wed Mar 18 11:29:34 2015
Timers Off: Wed Mar 18 11:29:42 2015

Wall Time:        8.00 seconds

JK: (A|mn)  :       0.07u       0.00s       0.00w      2 calls
JK: (A|Q)^-1/2:       0.13u       0.00s       0.00w      2 calls
JK: (Q|mn)  :       0.00u       0.00s       0.00w      2 calls
Form H      :       0.00u       0.00s       0.00w      2 calls
Form S/X    :       0.00u       0.00s       0.00w      2 calls
Guess       :       0.02u       0.00s       0.00w      2 calls
Form G      :       0.02u       0.02s       0.00w     44 calls
JK: D       :       0.00u       0.00s       0.00w     44 calls
JK: USO2AO  :       0.00u       0.00s       0.00w     30 calls
JK: JK      :       0.02u       0.02s       0.00w     44 calls
JK: J       :       0.00u       0.00s       0.00w     30 calls
JK: J1      :       0.00u       0.00s       0.00w     60 calls
JK: J2      :       0.00u       0.00s       0.00w     60 calls
JK: K       :       0.02u       0.00s       0.00w     30 calls
JK: K1      :       0.02u       0.00s       0.00w     60 calls
JK: K2      :       0.00u       0.00s       0.00w     60 calls
JK: AO2USO  :       0.00u       0.00s       0.00w     30 calls
Form F      :       0.00u       0.00s       0.00w     44 calls
DIIS        :       0.02u       0.00s       0.00w     44 calls
DIISManager::add_entry:       0.00u       0.00s       0.00w     64 calls
Form C      :       0.03u       0.00s       0.00w     44 calls
Form D      :       0.00u       0.00s       0.00w     44 calls
DIISManager::extrapolate:       0.02u       0.00s       0.00w     50 calls
DIISManager::extrapolate: bMatrix setup:       0.00u       0.00s       0.00w     50 calls
DIISManager::extrapolate: bMatrix pseudoinverse:       0.00u       0.00s       0.00w     50 calls
DIISManager::extrapolate: form new data:       0.02u       0.00s       0.00w     50 calls
DCFTSolver::scf_guess:       0.00u       0.00s       0.00w      2 calls
DCFTSolver::update_scf_density:       0.00u       0.00s       0.00w     30 calls
DCFTSolver::mp2_guess():       0.23u       0.20s       1.00w      2 calls
DCFTSolver::transform_integrals():       2.92u       2.67s       3.00w     30 calls
DCFTSolver::build_denominators():       0.00u       0.00s       0.00w     30 calls
DCFTSolver::build_tau():       0.07u       0.05s       0.00w     28 calls
DCFTSolver::transform_tau():       0.00u       0.00s       0.00w     28 calls
DCFTSolver::process_so_ints:       0.80u       0.05s       1.00w     28 calls
DCFTSolver::half_transform:       0.05u       0.00s       0.00w    168 calls
DCFTSolver::compute_scf_energy:       0.00u       0.00s       0.00w     28 calls
DCFTSolver::build_intermediates():       0.17u       0.17s       1.00w     28 calls
DCFTSolver::compute_lambda_residual():       0.02u       0.00s       0.00w     28 calls
DCFTSolver::update_lambda_from_residual():       0.07u       0.08s       0.00w     28 calls
DCFTSolver::compute_dcft_energy():       0.00u       0.05s       0.00w     28 calls
DCFTSolver::correct_mo_phases():       0.00u       0.00s       0.00w     28 calls

***********************************************************

Host: Xiaos-MacBook-Pro.local

Timers On : Wed Mar 18 11:50:39 2015
Timers Off: Wed Mar 18 11:50:47 2015

Wall Time:        8.00 seconds

JK: (A|mn)  :       0.05u       0.00s       0.00w      2 calls
JK: (A|Q)^-1/2:       0.15u       0.02s       0.00w      2 calls
JK: (Q|mn)  :       0.00u       0.00s       0.00w      2 calls
Form H      :       0.00u       0.00s       0.00w      2 calls
Form S/X    :       0.00u       0.00s       0.00w      2 calls
Guess       :       0.00u       0.00s       0.00w      2 calls
Form G      :       0.03u       0.02s       0.00w     44 calls
JK: D       :       0.00u       0.00s       0.00w     44 calls
JK: USO2AO  :       0.02u       0.00s       0.00w     30 calls
JK: JK      :       0.02u       0.02s       0.00w     44 calls
JK: J       :       0.00u       0.00s       0.00w     30 calls
JK: J1      :       0.00u       0.00s       0.00w     60 calls
JK: J2      :       0.00u       0.00s       0.00w     60 calls
JK: K       :       0.02u       0.00s       0.00w     30 calls
JK: K1      :       0.02u       0.00s       0.00w     60 calls
JK: K2      :       0.00u       0.00s       0.00w     60 calls
JK: AO2USO  :       0.00u       0.00s       0.00w     30 calls
Form F      :       0.00u       0.00s       0.00w     44 calls
DIIS        :       0.02u       0.00s       0.00w     44 calls
DIISManager::add_entry:       0.00u       0.02s       0.00w     64 calls
Form C      :       0.03u       0.00s       0.00w     44 calls
Form D      :       0.00u       0.00s       0.00w     44 calls
DIISManager::extrapolate:       0.02u       0.02s       0.00w     50 calls
DIISManager::extrapolate: bMatrix setup:       0.00u       0.00s       0.00w     50 calls
DIISManager::extrapolate: bMatrix pseudoinverse:       0.00u       0.00s       0.00w     50 calls
DIISManager::extrapolate: form new data:       0.02u       0.02s       0.00w     50 calls
DCFTSolver::scf_guess:       0.00u       0.00s       0.00w      2 calls
DCFTSolver::update_scf_density:       0.00u       0.00s       0.00w     30 calls
DCFTSolver::mp2_guess():       0.27u       0.20s       1.00w      2 calls
DCFTSolver::transform_integrals():       3.03u       2.67s       6.00w     30 calls
DCFTSolver::build_denominators():       0.03u       0.02s       0.00w     30 calls
DCFTSolver::build_tau():       0.05u       0.02s       0.00w     28 calls
DCFTSolver::transform_tau():       0.02u       0.00s       0.00w     28 calls
DCFTSolver::process_so_ints:       0.78u       0.07s       0.00w     28 calls
DCFTSolver::half_transform:       0.03u       0.00s       0.00w    168 calls
DCFTSolver::compute_scf_energy:       0.00u       0.00s       0.00w     28 calls
DCFTSolver::build_intermediates():       0.18u       0.17s       0.00w     28 calls
DCFTSolver::compute_lambda_residual():       0.03u       0.00s       0.00w     28 calls
DCFTSolver::update_lambda_from_residual():       0.02u       0.12s       0.00w     28 calls
DCFTSolver::compute_dcft_energy():       0.02u       0.13s       0.00w     28 calls
DCFTSolver::correct_mo_phases():       0.02u       0.00s       0.00w     28 calls

***********************************************************

Host: Xiaos-MacBook-Pro.local

Timers On : Thu Apr 23 16:29:51 2015
Timers Off: Thu Apr 23 16:29:56 2015

Wall Time:        5.00 seconds

JK: (A|mn)  :       0.02u       0.00s       0.00w      1 call
JK: (A|Q)^-1/2:       0.08u       0.00s       0.00w      1 call
JK: (Q|mn)  :       0.00u       0.00s       0.00w      1 call
Form H      :       0.00u       0.00s       0.00w      1 call
Form S/X    :       0.00u       0.00s       0.00w      1 call
Guess       :       0.00u       0.00s       0.00w      1 call
Form G      :       0.00u       0.00s       0.00w     20 calls
JK: D       :       0.00u       0.00s       0.00w     20 calls
JK: USO2AO  :       0.00u       0.00s       0.00w     14 calls
JK: JK      :       0.00u       0.00s       0.00w     20 calls
JK: J       :       0.00u       0.00s       0.00w     14 calls
JK: J1      :       0.00u       0.00s       0.00w     28 calls
JK: J2      :       0.00u       0.00s       0.00w     28 calls
JK: K       :       0.00u       0.00s       0.00w     14 calls
JK: K1      :       0.00u       0.00s       0.00w     28 calls
JK: K2      :       0.00u       0.00s       0.00w     28 calls
JK: AO2USO  :       0.00u       0.00s       0.00w     14 calls
Form F      :       0.00u       0.00s       0.00w     20 calls
DIIS        :       0.00u       0.00s       0.00w     20 calls
DIISManager::add_entry:       0.00u       0.00s       0.00w     30 calls
Form C      :       0.05u       0.00s       0.00w     20 calls
Form D      :       0.00u       0.00s       0.00w     20 calls
DIISManager::extrapolate:       0.02u       0.00s       0.00w     23 calls
DIISManager::extrapolate: bMatrix setup:       0.00u       0.00s       0.00w     23 calls
DIISManager::extrapolate: bMatrix pseudoinverse:       0.00u       0.00s       0.00w     23 calls
DIISManager::extrapolate: form new data:       0.02u       0.00s       0.00w     23 calls
DCFTSolver::scf_guess:       0.00u       0.00s       0.00w      1 call
DCFTSolver::update_scf_density:       0.00u       0.00s       0.00w     15 calls
DCFTSolver::mp2_guess():       0.12u       0.12s       1.00w      1 call
DCFTSolver::transform_integrals():       1.43u       2.97s       2.00w     15 calls
DCFTSolver::build_denominators():       0.00u       0.00s       0.00w     15 calls
DCFTSolver::build_tau():       0.00u       0.02s       0.00w     14 calls
DCFTSolver::transform_tau():       0.00u       0.00s       0.00w     14 calls
DCFTSolver::process_so_ints:       0.37u       0.03s       1.00w     14 calls
DCFTSolver::half_transform:       0.02u       0.00s       0.00w     84 calls
DCFTSolver::compute_scf_energy:       0.00u       0.00s       0.00w     14 calls
DCFTSolver::build_intermediates():       0.12u       0.15s       0.00w     14 calls
DCFTSolver::compute_lambda_residual():       0.00u       0.00s       0.00w     14 calls
DCFTSolver::update_lambda_from_residual():       0.00u       0.08s       0.00w     14 calls
DCFTSolver::compute_dcft_energy():       0.05u       0.03s       0.00w     14 calls
DCFTSolver::correct_mo_phases():       0.00u       0.00s       0.00w     14 calls

***********************************************************

Host: Xiaos-MacBook-Pro.local

Timers On : Thu Apr 23 16:30:20 2015
Timers Off: Thu Apr 23 16:30:22 2015

Wall Time:        2.00 seconds

JK: (A|mn)  :       0.02u       0.00s       0.00w      1 call
JK: (A|Q)^-1/2:       0.07u       0.00s       0.00w      1 call
JK: (Q|mn)  :       0.00u       0.00s       0.00w      1 call
Form H      :       0.00u       0.00s       0.00w      1 call
Form S/X    :       0.02u       0.00s       0.00w      1 call
Guess       :       0.00u       0.00s       0.00w      1 call
Form G      :       0.12u       0.02s       0.00w     20 calls
JK: D       :       0.00u       0.00s       0.00w     20 calls
JK: USO2AO  :       0.00u       0.00s       0.00w     14 calls
JK: JK      :       0.02u       0.00s       0.00w     20 calls
JK: J       :       0.00u       0.00s       0.00w     14 calls
JK: J1      :       0.00u       0.00s       0.00w     14 calls
JK: J2      :       0.00u       0.00s       0.00w     14 calls
JK: K       :       0.00u       0.00s       0.00w     14 calls
JK: K1      :       0.00u       0.00s       0.00w     14 calls
JK: K2      :       0.00u       0.00s       0.00w     14 calls
JK: AO2USO  :       0.00u       0.02s       0.00w     14 calls
Form F      :       0.00u       0.00s       0.00w     20 calls
DIIS        :       0.02u       0.00s       0.00w     20 calls
DIISManager::add_entry:       0.03u       0.00s       0.00w     30 calls
Form C      :       0.00u       0.00s       0.00w     20 calls
Form D      :       0.00u       0.00s       0.00w     20 calls
DIISManager::extrapolate:       0.03u       0.00s       0.00w     23 calls
DIISManager::extrapolate: bMatrix setup:       0.00u       0.00s       0.00w     23 calls
DIISManager::extrapolate: bMatrix pseudoinverse:       0.02u       0.00s       0.00w     23 calls
DIISManager::extrapolate: form new data:       0.02u       0.00s       0.00w     23 calls
DCFTSolver::rhf_guess:       0.00u       0.00s       0.00w      1 call
DCFTSolver::update_rhf_density:       0.00u       0.00s       0.00w     15 calls
DCFTSolver::mp2_guess():       0.03u       0.07s       0.00w      1 call
DCFTSolver::transform_integrals():       0.43u       0.42s       1.00w     15 calls
DCFTSolver::build_denominators():       0.02u       0.00s       0.00w     15 calls
DCFTSolver::build_tau():       0.00u       0.00s       0.00w     14 calls
DCFTSolver::refine_tau():       0.00u       0.00s       0.00w     14 calls
DCFTSolver::transform_tau():       0.00u       0.00s       0.00w     14 calls
DCFTSolver::process_so_ints:       0.17u       0.02s       0.00w     14 calls
DCFTSolver::half_transform:       0.00u       0.00s       0.00w     28 calls
DCFTSolver::compute_scf_energy:       0.00u       0.00s       0.00w     14 calls
DCFTSolver::build_intermediates():       0.02u       0.05s       0.00w     14 calls
DCFTSolver::compute_lambda_residual():       0.00u       0.00s       0.00w     14 calls
DCFTSolver::update_lambda_from_residual():       0.00u       0.00s       0.00w     14 calls
DCFTSolver::compute_dcft_energy():       0.00u       0.02s       0.00w     14 calls
DCFTSolver::orbital_optimization:       0.17u       0.10s       0.00w     14 calls
DCFTSolver::correct_mo_phases():       0.00u       0.00s       0.00w     14 calls
DCFTSolver::compute_R_AA_and_BB:       0.00u       0.00s       0.00w     10 calls

***********************************************************

Host: Xiaos-MacBook-Pro.local

Timers On : Tue Apr 28 15:54:10 2015
Timers Off: Tue Apr 28 15:54:11 2015

Wall Time:        1.00 seconds

JK: (A|mn)  :       0.02u       0.00s       0.00w      1 call
JK: (A|Q)^-1/2:       0.07u       0.00s       0.00w      1 call
JK: (Q|mn)  :       0.00u       0.00s       0.00w      1 call
Form H      :       0.00u       0.00s       0.00w      1 call
Form S/X    :       0.00u       0.00s       0.00w      1 call
Guess       :       0.00u       0.00s       0.00w      1 call
Form G      :       0.02u       0.00s       0.00w     12 calls
JK: D       :       0.00u       0.00s       0.00w     12 calls
JK: USO2AO  :       0.00u       0.00s       0.00w     12 calls
JK: JK      :       0.02u       0.00s       0.00w     12 calls
JK: J       :       0.00u       0.00s       0.00w     12 calls
JK: J1      :       0.00u       0.00s       0.00w     24 calls
JK: J2      :       0.00u       0.00s       0.00w     24 calls
JK: K       :       0.02u       0.00s       0.00w     12 calls
JK: K1      :       0.02u       0.00s       0.00w     24 calls
JK: K2      :       0.00u       0.00s       0.00w     24 calls
JK: AO2USO  :       0.00u       0.00s       0.00w     12 calls
Form F      :       0.00u       0.00s       0.00w     12 calls
DIIS        :       0.00u       0.00s       0.00w     12 calls
DIISManager::add_entry:       0.00u       0.00s       0.00w     12 calls
Form C      :       0.02u       0.00s       0.00w     12 calls
Form D      :       0.00u       0.00s       0.00w     12 calls
DIISManager::extrapolate:       0.00u       0.00s       0.00w      9 calls
DIISManager::extrapolate: bMatrix setup:       0.00u       0.00s       0.00w      9 calls
DIISManager::extrapolate: bMatrix pseudoinverse:       0.00u       0.00s       0.00w      9 calls
DIISManager::extrapolate: form new data:       0.00u       0.00s       0.00w      9 calls

***********************************************************

Host: Xiaos-MacBook-Pro.local

Timers On : Tue Apr 28 16:19:21 2015
Timers Off: Tue Apr 28 16:19:21 2015

Wall Time:        0.00 seconds

JK: (A|mn)  :       0.02u       0.00s       0.00w      1 call
JK: (A|Q)^-1/2:       0.08u       0.00s       0.00w      1 call
JK: (Q|mn)  :       0.00u       0.00s       0.00w      1 call
Form H      :       0.00u       0.00s       0.00w      1 call
Form S/X    :       0.00u       0.00s       0.00w      1 call
Guess       :       0.00u       0.00s       0.00w      1 call
Form G      :       0.02u       0.00s       0.00w     12 calls
JK: D       :       0.00u       0.00s       0.00w     12 calls
JK: USO2AO  :       0.00u       0.00s       0.00w     12 calls
JK: JK      :       0.02u       0.00s       0.00w     12 calls
JK: J       :       0.00u       0.00s       0.00w     12 calls
JK: J1      :       0.00u       0.00s       0.00w     24 calls
JK: J2      :       0.00u       0.00s       0.00w     24 calls
JK: K       :       0.02u       0.00s       0.00w     12 calls
JK: K1      :       0.02u       0.00s       0.00w     24 calls
JK: K2      :       0.00u       0.00s       0.00w     24 calls
JK: AO2USO  :       0.00u       0.00s       0.00w     12 calls
Form F      :       0.00u       0.00s       0.00w     12 calls
DIIS        :       0.00u       0.00s       0.00w     12 calls
DIISManager::add_entry:       0.00u       0.00s       0.00w     12 calls
Form C      :       0.00u       0.02s       0.00w     12 calls
Form D      :       0.00u       0.00s       0.00w     12 calls
DIISManager::extrapolate:       0.00u       0.00s       0.00w      9 calls
DIISManager::extrapolate: bMatrix setup:       0.00u       0.00s       0.00w      9 calls
DIISManager::extrapolate: bMatrix pseudoinverse:       0.00u       0.00s       0.00w      9 calls
DIISManager::extrapolate: form new data:       0.00u       0.00s       0.00w      9 calls

***********************************************************

Host: Xiaos-MacBook-Pro.local

Timers On : Tue Apr 28 16:39:41 2015
Timers Off: Tue Apr 28 16:39:42 2015

Wall Time:        1.00 seconds

JK: (A|mn)  :       0.03u       0.00s       0.00w      1 call
JK: (A|Q)^-1/2:       0.07u       0.00s       0.00w      1 call
JK: (Q|mn)  :       0.00u       0.00s       0.00w      1 call
Form H      :       0.00u       0.00s       0.00w      1 call
Form S/X    :       0.00u       0.00s       0.00w      1 call
Guess       :       0.00u       0.00s       0.00w      1 call
Form G      :       0.00u       0.02s       0.00w     12 calls
JK: D       :       0.00u       0.00s       0.00w     12 calls
JK: USO2AO  :       0.00u       0.00s       0.00w     12 calls
JK: JK      :       0.00u       0.00s       0.00w     12 calls
JK: J       :       0.00u       0.00s       0.00w     12 calls
JK: J1      :       0.00u       0.00s       0.00w     24 calls
JK: J2      :       0.00u       0.00s       0.00w     24 calls
JK: K       :       0.00u       0.00s       0.00w     12 calls
JK: K1      :       0.00u       0.00s       0.00w     24 calls
JK: K2      :       0.00u       0.00s       0.00w     24 calls
JK: AO2USO  :       0.00u       0.00s       0.00w     12 calls
Form F      :       0.00u       0.00s       0.00w     12 calls
DIIS        :       0.02u       0.00s       0.00w     12 calls
DIISManager::add_entry:       0.00u       0.00s       0.00w     12 calls
Form C      :       0.00u       0.00s       0.00w     12 calls
Form D      :       0.00u       0.00s       0.00w     12 calls
DIISManager::extrapolate:       0.02u       0.00s       0.00w      9 calls
DIISManager::extrapolate: bMatrix setup:       0.00u       0.00s       0.00w      9 calls
DIISManager::extrapolate: bMatrix pseudoinverse:       0.00u       0.00s       0.00w      9 calls
DIISManager::extrapolate: form new data:       0.02u       0.00s       0.00w      9 calls

***********************************************************

Host: Xiaos-MacBook-Pro.local

Timers On : Tue Apr 28 16:39:55 2015
Timers Off: Tue Apr 28 16:39:56 2015

Wall Time:        1.00 seconds

JK: (A|mn)  :       0.03u       0.00s       0.00w      1 call
JK: (A|Q)^-1/2:       0.07u       0.00s       0.00w      1 call
JK: (Q|mn)  :       0.00u       0.00s       0.00w      1 call
Form H      :       0.00u       0.00s       0.00w      1 call
Form S/X    :       0.00u       0.00s       0.00w      1 call
Guess       :       0.00u       0.00s       0.00w      1 call
Form G      :       0.00u       0.00s       0.00w     12 calls
JK: D       :       0.00u       0.00s       0.00w     12 calls
JK: USO2AO  :       0.00u       0.00s       0.00w     12 calls
JK: JK      :       0.00u       0.00s       0.00w     12 calls
JK: J       :       0.00u       0.00s       0.00w     12 calls
JK: J1      :       0.00u       0.00s       0.00w     24 calls
JK: J2      :       0.00u       0.00s       0.00w     24 calls
JK: K       :       0.00u       0.00s       0.00w     12 calls
JK: K1      :       0.00u       0.00s       0.00w     24 calls
JK: K2      :       0.00u       0.00s       0.00w     24 calls
JK: AO2USO  :       0.00u       0.00s       0.00w     12 calls
Form F      :       0.00u       0.00s       0.00w     12 calls
DIIS        :       0.00u       0.00s       0.00w     12 calls
DIISManager::add_entry:       0.00u       0.00s       0.00w     12 calls
Form C      :       0.02u       0.00s       0.00w     12 calls
Form D      :       0.00u       0.00s       0.00w     12 calls
DIISManager::extrapolate:       0.00u       0.00s       0.00w      9 calls
DIISManager::extrapolate: bMatrix setup:       0.00u       0.00s       0.00w      9 calls
DIISManager::extrapolate: bMatrix pseudoinverse:       0.00u       0.00s       0.00w      9 calls
DIISManager::extrapolate: form new data:       0.00u       0.00s       0.00w      9 calls

***********************************************************

Host: Xiaos-MacBook-Pro.local

Timers On : Tue Apr 28 16:40:50 2015
Timers Off: Tue Apr 28 16:41:03 2015

Wall Time:       13.00 seconds

JK: (A|mn)  :       0.02u       0.00s       0.00w      1 call
JK: (A|Q)^-1/2:       0.08u       0.00s       0.00w      1 call
JK: (Q|mn)  :       0.00u       0.00s       0.00w      1 call
Form H      :       0.00u       0.00s       0.00w      1 call
Form S/X    :       0.00u       0.00s       0.00w      1 call
Guess       :       0.00u       0.00s       0.00w      1 call
Form G      :       0.00u       0.00s       0.00w     12 calls
JK: D       :       0.00u       0.00s       0.00w     12 calls
JK: USO2AO  :       0.00u       0.00s       0.00w     12 calls
JK: JK      :       0.00u       0.00s       0.00w     12 calls
JK: J       :       0.00u       0.00s       0.00w     12 calls
JK: J1      :       0.00u       0.00s       0.00w     24 calls
JK: J2      :       0.00u       0.00s       0.00w     24 calls
JK: K       :       0.00u       0.00s       0.00w     12 calls
JK: K1      :       0.00u       0.00s       0.00w     24 calls
JK: K2      :       0.00u       0.00s       0.00w     24 calls
JK: AO2USO  :       0.00u       0.00s       0.00w     12 calls
Form F      :       0.00u       0.00s       0.00w     12 calls
DIIS        :       0.00u       0.02s       0.00w     12 calls
DIISManager::add_entry:       0.00u       0.02s       0.00w     12 calls
Form C      :       0.03u       0.00s       0.00w     12 calls
Form D      :       0.00u       0.00s       0.00w     12 calls
DIISManager::extrapolate:       0.00u       0.00s       0.00w      9 calls
DIISManager::extrapolate: bMatrix setup:       0.00u       0.00s       0.00w      9 calls
DIISManager::extrapolate: bMatrix pseudoinverse:       0.00u       0.00s       0.00w      9 calls
DIISManager::extrapolate: form new data:       0.00u       0.00s       0.00w      9 calls

***********************************************************

Host: Xiaos-MacBook-Pro.local

Timers On : Tue Apr 28 16:42:43 2015
Timers Off: Tue Apr 28 16:42:56 2015

Wall Time:       13.00 seconds

JK: (A|mn)  :       0.02u       0.00s       0.00w      1 call
JK: (A|Q)^-1/2:       0.08u       0.00s       0.00w      1 call
JK: (Q|mn)  :       0.00u       0.00s       0.00w      1 call
Form H      :       0.00u       0.00s       0.00w      1 call
Form S/X    :       0.00u       0.00s       0.00w      1 call
Guess       :       0.00u       0.00s       0.00w      1 call
Form G      :       0.02u       0.00s       0.00w     12 calls
JK: D       :       0.00u       0.00s       0.00w     12 calls
JK: USO2AO  :       0.00u       0.00s       0.00w     12 calls
JK: JK      :       0.02u       0.00s       0.00w     12 calls
JK: J       :       0.00u       0.00s       0.00w     12 calls
JK: J1      :       0.00u       0.00s       0.00w     24 calls
JK: J2      :       0.00u       0.00s       0.00w     24 calls
JK: K       :       0.02u       0.00s       0.00w     12 calls
JK: K1      :       0.02u       0.00s       0.00w     24 calls
JK: K2      :       0.00u       0.00s       0.00w     24 calls
JK: AO2USO  :       0.00u       0.00s       0.00w     12 calls
Form F      :       0.00u       0.00s       0.00w     12 calls
DIIS        :       0.00u       0.00s       0.00w     12 calls
DIISManager::add_entry:       0.00u       0.00s       0.00w     12 calls
Form C      :       0.00u       0.02s       0.00w     12 calls
Form D      :       0.00u       0.00s       0.00w     12 calls
DIISManager::extrapolate:       0.00u       0.00s       0.00w      9 calls
DIISManager::extrapolate: bMatrix setup:       0.00u       0.00s       0.00w      9 calls
DIISManager::extrapolate: bMatrix pseudoinverse:       0.00u       0.00s       0.00w      9 calls
DIISManager::extrapolate: form new data:       0.00u       0.00s       0.00w      9 calls

***********************************************************

Host: Xiaos-MacBook-Pro.local

Timers On : Tue Apr 28 16:47:37 2015
Timers Off: Tue Apr 28 16:47:38 2015

Wall Time:        1.00 seconds

JK: (A|mn)  :       0.02u       0.00s       0.00w      1 call
JK: (A|Q)^-1/2:       0.08u       0.00s       0.00w      1 call
JK: (Q|mn)  :       0.00u       0.00s       0.00w      1 call
Form H      :       0.00u       0.00s       0.00w      1 call
Form S/X    :       0.00u       0.00s       0.00w      1 call
Guess       :       0.00u       0.00s       0.00w      1 call
Form G      :       0.02u       0.00s       0.00w     12 calls
JK: D       :       0.00u       0.00s       0.00w     12 calls
JK: USO2AO  :       0.00u       0.00s       0.00w     12 calls
JK: JK      :       0.02u       0.00s       0.00w     12 calls
JK: J       :       0.00u       0.00s       0.00w     12 calls
JK: J1      :       0.00u       0.00s       0.00w     24 calls
JK: J2      :       0.00u       0.00s       0.00w     24 calls
JK: K       :       0.02u       0.00s       0.00w     12 calls
JK: K1      :       0.02u       0.00s       0.00w     24 calls
JK: K2      :       0.00u       0.00s       0.00w     24 calls
JK: AO2USO  :       0.00u       0.00s       0.00w     12 calls
Form F      :       0.00u       0.00s       0.00w     12 calls
DIIS        :       0.00u       0.00s       0.00w     12 calls
DIISManager::add_entry:       0.00u       0.00s       0.00w     12 calls
Form C      :       0.00u       0.00s       0.00w     12 calls
Form D      :       0.00u       0.00s       0.00w     12 calls
DIISManager::extrapolate:       0.00u       0.00s       0.00w      9 calls
DIISManager::extrapolate: bMatrix setup:       0.00u       0.00s       0.00w      9 calls
DIISManager::extrapolate: bMatrix pseudoinverse:       0.00u       0.00s       0.00w      9 calls
DIISManager::extrapolate: form new data:       0.00u       0.00s       0.00w      9 calls

***********************************************************

Host: Xiaos-MacBook-Pro.local

Timers On : Tue Apr 28 16:47:54 2015
Timers Off: Tue Apr 28 16:48:07 2015

Wall Time:       13.00 seconds

JK: (A|mn)  :       0.02u       0.00s       0.00w      1 call
JK: (A|Q)^-1/2:       0.07u       0.00s       0.00w      1 call
JK: (Q|mn)  :       0.00u       0.00s       0.00w      1 call
Form H      :       0.00u       0.00s       0.00w      1 call
Form S/X    :       0.00u       0.00s       0.00w      1 call
Guess       :       0.00u       0.00s       0.00w      1 call
Form G      :       0.02u       0.00s       0.00w     12 calls
JK: D       :       0.00u       0.00s       0.00w     12 calls
JK: USO2AO  :       0.00u       0.00s       0.00w     12 calls
JK: JK      :       0.02u       0.00s       0.00w     12 calls
JK: J       :       0.02u       0.00s       0.00w     12 calls
JK: J1      :       0.00u       0.00s       0.00w     24 calls
JK: J2      :       0.02u       0.00s       0.00w     24 calls
JK: K       :       0.00u       0.00s       0.00w     12 calls
JK: K1      :       0.00u       0.00s       0.00w     24 calls
JK: K2      :       0.00u       0.00s       0.00w     24 calls
JK: AO2USO  :       0.00u       0.00s       0.00w     12 calls
Form F      :       0.00u       0.00s       0.00w     12 calls
DIIS        :       0.00u       0.00s       0.00w     12 calls
DIISManager::add_entry:       0.00u       0.00s       0.00w     12 calls
Form C      :       0.00u       0.00s       0.00w     12 calls
Form D      :       0.00u       0.00s       0.00w     12 calls
DIISManager::extrapolate:       0.00u       0.00s       0.00w      9 calls
DIISManager::extrapolate: bMatrix setup:       0.00u       0.00s       0.00w      9 calls
DIISManager::extrapolate: bMatrix pseudoinverse:       0.00u       0.00s       0.00w      9 calls
DIISManager::extrapolate: form new data:       0.00u       0.00s       0.00w      9 calls

***********************************************************

Host: Xiaos-MacBook-Pro.local

Timers On : Tue Apr 28 16:51:47 2015
Timers Off: Tue Apr 28 16:51:52 2015

Wall Time:        5.00 seconds

JK: (A|mn)  :       0.02u       0.00s       0.00w      1 call
JK: (A|Q)^-1/2:       0.08u       0.00s       0.00w      1 call
JK: (Q|mn)  :       0.00u       0.00s       0.00w      1 call
Form H      :       0.00u       0.00s       0.00w      1 call
Form S/X    :       0.00u       0.00s       0.00w      1 call
Guess       :       0.00u       0.00s       0.00w      1 call
Form G      :       0.12u       0.02s       0.00w     20 calls
JK: D       :       0.00u       0.00s       0.00w     20 calls
JK: USO2AO  :       0.00u       0.00s       0.00w     14 calls
JK: JK      :       0.00u       0.02s       0.00w     20 calls
JK: J       :       0.00u       0.00s       0.00w     14 calls
JK: J1      :       0.00u       0.00s       0.00w     14 calls
JK: J2      :       0.00u       0.00s       0.00w     14 calls
JK: K       :       0.00u       0.00s       0.00w     14 calls
JK: K1      :       0.00u       0.00s       0.00w     14 calls
JK: K2      :       0.00u       0.00s       0.00w     14 calls
JK: AO2USO  :       0.00u       0.00s       0.00w     14 calls
Form F      :       0.00u       0.00s       0.00w     20 calls
DIIS        :       0.00u       0.00s       0.00w     20 calls
DIISManager::add_entry:       0.00u       0.00s       0.00w     30 calls
Form C      :       0.02u       0.00s       0.00w     20 calls
Form D      :       0.00u       0.00s       0.00w     20 calls
DIISManager::extrapolate:       0.00u       0.00s       0.00w     23 calls
DIISManager::extrapolate: bMatrix setup:       0.00u       0.00s       0.00w     23 calls
DIISManager::extrapolate: bMatrix pseudoinverse:       0.00u       0.00s       0.00w     23 calls
DIISManager::extrapolate: form new data:       0.00u       0.00s       0.00w     23 calls
DCFTSolver::rhf_guess:       0.00u       0.00s       0.00w      1 call
DCFTSolver::update_rhf_density:       0.00u       0.00s       0.00w     15 calls
DCFTSolver::mp2_guess():       0.05u       0.05s       0.00w      1 call
DCFTSolver::transform_integrals():       0.47u       0.63s       1.00w     15 calls
DCFTSolver::build_denominators():       0.02u       0.00s       0.00w     15 calls
DCFTSolver::build_tau():       0.03u       0.02s       0.00w     14 calls
DCFTSolver::refine_tau():       0.00u       0.00s       0.00w     14 calls
DCFTSolver::transform_tau():       0.00u       0.00s       0.00w     14 calls
DCFTSolver::process_so_ints:       0.13u       0.00s       0.00w     14 calls
DCFTSolver::half_transform:       0.00u       0.00s       0.00w     28 calls
DCFTSolver::compute_scf_energy:       0.00u       0.00s       0.00w     14 calls
DCFTSolver::build_intermediates():       0.03u       0.03s       1.00w     14 calls
DCFTSolver::compute_lambda_residual():       0.00u       0.00s       0.00w     14 calls
DCFTSolver::update_lambda_from_residual():       0.02u       0.05s       0.00w     14 calls
DCFTSolver::compute_dcft_energy():       0.00u       0.02s       1.00w     14 calls
DCFTSolver::orbital_optimization:       0.15u       0.12s       1.00w     14 calls
DCFTSolver::correct_mo_phases():       0.00u       0.00s       0.00w     14 calls
DCFTSolver::compute_R_AA_and_BB:       0.00u       0.00s       0.00w     10 calls

***********************************************************

Host: Xiaos-MacBook-Pro.local

Timers On : Tue Apr 28 16:55:08 2015
Timers Off: Tue Apr 28 16:55:25 2015

Wall Time:       17.00 seconds

JK: (A|mn)  :       0.02u       0.00s       0.00w      1 call
JK: (A|Q)^-1/2:       0.07u       0.00s       0.00w      1 call
JK: (Q|mn)  :       0.00u       0.00s       0.00w      1 call
Form H      :       0.00u       0.02s       0.00w      1 call
Form S/X    :       0.00u       0.00s       0.00w      1 call
Guess       :       0.00u       0.00s       0.00w      1 call
Form G      :       0.13u       0.00s       0.00w     20 calls
JK: D       :       0.00u       0.00s       0.00w     20 calls
JK: USO2AO  :       0.00u       0.00s       0.00w     14 calls
JK: JK      :       0.00u       0.00s       0.00w     20 calls
JK: J       :       0.00u       0.00s       0.00w     14 calls
JK: J1      :       0.00u       0.00s       0.00w     14 calls
JK: J2      :       0.00u       0.00s       0.00w     14 calls
JK: K       :       0.00u       0.00s       0.00w     14 calls
JK: K1      :       0.00u       0.00s       0.00w     14 calls
JK: K2      :       0.00u       0.00s       0.00w     14 calls
JK: AO2USO  :       0.00u       0.00s       0.00w     14 calls
Form F      :       0.00u       0.00s       0.00w     20 calls
DIIS        :       0.00u       0.00s       0.00w     20 calls
DIISManager::add_entry:       0.00u       0.00s       0.00w     30 calls
Form C      :       0.00u       0.00s       0.00w     20 calls
Form D      :       0.00u       0.00s       0.00w     20 calls
DIISManager::extrapolate:       0.02u       0.02s       0.00w     23 calls
DIISManager::extrapolate: bMatrix setup:       0.00u       0.00s       0.00w     23 calls
DIISManager::extrapolate: bMatrix pseudoinverse:       0.00u       0.00s       0.00w     23 calls
DIISManager::extrapolate: form new data:       0.02u       0.02s       0.00w     23 calls
DCFTSolver::rhf_guess:       0.00u       0.00s       0.00w      1 call
DCFTSolver::update_rhf_density:       0.00u       0.00s       0.00w     15 calls
DCFTSolver::mp2_guess():       0.05u       0.05s       0.00w      1 call
DCFTSolver::transform_integrals():       0.43u       0.47s       3.00w     15 calls
DCFTSolver::build_denominators():       0.00u       0.00s       0.00w     15 calls
DCFTSolver::build_tau():       0.02u       0.02s       0.00w     14 calls
DCFTSolver::refine_tau():       0.00u       0.00s       0.00w     14 calls
DCFTSolver::transform_tau():       0.00u       0.00s       0.00w     14 calls
DCFTSolver::process_so_ints:       0.15u       0.00s       0.00w     14 calls
DCFTSolver::half_transform:       0.00u       0.00s       0.00w     28 calls
DCFTSolver::compute_scf_energy:       0.00u       0.00s       0.00w     14 calls
DCFTSolver::build_intermediates():       0.02u       0.05s       0.00w     14 calls
DCFTSolver::compute_lambda_residual():       0.03u       0.00s       0.00w     14 calls
DCFTSolver::update_lambda_from_residual():       0.00u       0.02s       0.00w     14 calls
DCFTSolver::compute_dcft_energy():       0.00u       0.02s       0.00w     14 calls
DCFTSolver::orbital_optimization:       0.15u       0.15s       0.00w     14 calls
DCFTSolver::correct_mo_phases():       0.00u       0.00s       0.00w     14 calls
DCFTSolver::compute_R_AA_and_BB:       0.00u       0.00s       0.00w     10 calls

***********************************************************

Host: Xiaos-MacBook-Pro.local

Timers On : Tue Apr 28 17:38:03 2015
Timers Off: Tue Apr 28 17:38:21 2015

Wall Time:       18.00 seconds

JK: (A|mn)  :       0.02u       0.00s       0.00w      1 call
JK: (A|Q)^-1/2:       0.07u       0.00s       0.00w      1 call
JK: (Q|mn)  :       0.00u       0.00s       0.00w      1 call
Form H      :       0.00u       0.00s       0.00w      1 call
Form S/X    :       0.00u       0.00s       0.00w      1 call
Guess       :       0.00u       0.00s       0.00w      1 call
Form G      :       0.12u       0.00s       0.00w     20 calls
JK: D       :       0.00u       0.00s       0.00w     20 calls
JK: USO2AO  :       0.00u       0.00s       0.00w     14 calls
JK: JK      :       0.00u       0.00s       0.00w     20 calls
JK: J       :       0.00u       0.00s       0.00w     14 calls
JK: J1      :       0.00u       0.00s       0.00w     14 calls
JK: J2      :       0.00u       0.00s       0.00w     14 calls
JK: K       :       0.00u       0.00s       0.00w     14 calls
JK: K1      :       0.00u       0.00s       0.00w     14 calls
JK: K2      :       0.00u       0.00s       0.00w     14 calls
JK: AO2USO  :       0.00u       0.00s       0.00w     14 calls
Form F      :       0.00u       0.00s       0.00w     20 calls
DIIS        :       0.02u       0.00s       0.00w     20 calls
DIISManager::add_entry:       0.02u       0.00s       0.00w     30 calls
Form C      :       0.02u       0.00s       0.00w     20 calls
Form D      :       0.00u       0.00s       0.00w     20 calls
DIISManager::extrapolate:       0.00u       0.00s       0.00w     23 calls
DIISManager::extrapolate: bMatrix setup:       0.00u       0.00s       0.00w     23 calls
DIISManager::extrapolate: bMatrix pseudoinverse:       0.00u       0.00s       0.00w     23 calls
DIISManager::extrapolate: form new data:       0.00u       0.00s       0.00w     23 calls
DCFTSolver::rhf_guess:       0.00u       0.00s       0.00w      1 call
DCFTSolver::update_rhf_density:       0.00u       0.00s       0.00w     15 calls
DCFTSolver::mp2_guess():       0.05u       0.03s       0.00w      1 call
DCFTSolver::transform_integrals():       0.42u       0.55s       4.00w     15 calls
DCFTSolver::build_denominators():       0.00u       0.00s       0.00w     15 calls
DCFTSolver::build_tau():       0.00u       0.00s       0.00w     14 calls
DCFTSolver::refine_tau():       0.00u       0.00s       0.00w     14 calls
DCFTSolver::transform_tau():       0.00u       0.00s       0.00w     14 calls
DCFTSolver::process_so_ints:       0.13u       0.02s       0.00w     14 calls
DCFTSolver::half_transform:       0.00u       0.00s       0.00w     28 calls
DCFTSolver::compute_scf_energy:       0.00u       0.00s       0.00w     14 calls
DCFTSolver::build_intermediates():       0.07u       0.10s       0.00w     14 calls
DCFTSolver::compute_lambda_residual():       0.00u       0.00s       0.00w     14 calls
DCFTSolver::update_lambda_from_residual():       0.00u       0.00s       0.00w     14 calls
DCFTSolver::compute_dcft_energy():       0.00u       0.00s       0.00w     14 calls
DCFTSolver::orbital_optimization:       0.15u       0.12s       0.00w     14 calls
DCFTSolver::correct_mo_phases():       0.02u       0.00s       0.00w     14 calls
DCFTSolver::compute_R_AA_and_BB:       0.00u       0.00s       0.00w     10 calls

***********************************************************

Host: Xiaos-MacBook-Pro.local

Timers On : Tue Apr 28 17:46:51 2015
Timers Off: Tue Apr 28 17:46:56 2015

Wall Time:        5.00 seconds

JK: (A|mn)  :       0.03u       0.00s       0.00w      1 call
JK: (A|Q)^-1/2:       0.08u       0.00s       0.00w      1 call
JK: (Q|mn)  :       0.00u       0.00s       0.00w      1 call
Form H      :       0.00u       0.00s       0.00w      1 call
Form S/X    :       0.00u       0.00s       0.00w      1 call
Guess       :       0.00u       0.00s       0.00w      1 call
Form G      :       0.15u       0.02s       0.00w     20 calls
JK: D       :       0.00u       0.00s       0.00w     20 calls
JK: USO2AO  :       0.00u       0.00s       0.00w     14 calls
JK: JK      :       0.03u       0.02s       0.00w     20 calls
JK: J       :       0.00u       0.00s       0.00w     14 calls
JK: J1      :       0.00u       0.00s       0.00w     14 calls
JK: J2      :       0.00u       0.00s       0.00w     14 calls
JK: K       :       0.02u       0.00s       0.00w     14 calls
JK: K1      :       0.02u       0.00s       0.00w     14 calls
JK: K2      :       0.00u       0.00s       0.00w     14 calls
JK: AO2USO  :       0.00u       0.00s       0.00w     14 calls
Form F      :       0.00u       0.00s       0.00w     20 calls
DIIS        :       0.00u       0.00s       0.00w     20 calls
DIISManager::add_entry:       0.02u       0.00s       0.00w     30 calls
Form C      :       0.00u       0.00s       0.00w     20 calls
Form D      :       0.00u       0.00s       0.00w     20 calls
DIISManager::extrapolate:       0.02u       0.00s       0.00w     23 calls
DIISManager::extrapolate: bMatrix setup:       0.00u       0.00s       0.00w     23 calls
DIISManager::extrapolate: bMatrix pseudoinverse:       0.02u       0.00s       0.00w     23 calls
DIISManager::extrapolate: form new data:       0.00u       0.00s       0.00w     23 calls
DCFTSolver::rhf_guess:       0.00u       0.00s       0.00w      1 call
DCFTSolver::update_rhf_density:       0.00u       0.00s       0.00w     15 calls
DCFTSolver::mp2_guess():       0.05u       0.07s       0.00w      1 call
DCFTSolver::transform_integrals():       0.43u       0.92s       2.00w     15 calls
DCFTSolver::build_denominators():       0.00u       0.00s       0.00w     15 calls
DCFTSolver::build_tau():       0.00u       0.00s       0.00w     14 calls
DCFTSolver::refine_tau():       0.00u       0.00s       0.00w     14 calls
DCFTSolver::transform_tau():       0.00u       0.00s       0.00w     14 calls
DCFTSolver::process_so_ints:       0.15u       0.03s       0.00w     14 calls
DCFTSolver::half_transform:       0.00u       0.00s       0.00w     28 calls
DCFTSolver::compute_scf_energy:       0.00u       0.00s       0.00w     14 calls
DCFTSolver::build_intermediates():       0.03u       0.10s       0.00w     14 calls
DCFTSolver::compute_lambda_residual():       0.00u       0.00s       0.00w     14 calls
DCFTSolver::update_lambda_from_residual():       0.02u       0.02s       0.00w     14 calls
DCFTSolver::compute_dcft_energy():       0.02u       0.03s       0.00w     14 calls
DCFTSolver::orbital_optimization:       0.15u       0.13s       2.00w     14 calls
DCFTSolver::correct_mo_phases():       0.00u       0.00s       0.00w     14 calls
DCFTSolver::compute_R_AA_and_BB:       0.00u       0.00s       0.00w     10 calls

***********************************************************

Host: Xiaos-MacBook-Pro.local

Timers On : Tue Apr 28 18:37:43 2015
Timers Off: Tue Apr 28 18:37:53 2015

Wall Time:       10.00 seconds

JK: (A|mn)  :       0.02u       0.00s       0.00w      1 call
JK: (A|Q)^-1/2:       0.08u       0.00s       0.00w      1 call
JK: (Q|mn)  :       0.00u       0.00s       0.00w      1 call
Form H      :       0.00u       0.00s       0.00w      1 call
Form S/X    :       0.00u       0.00s       0.00w      1 call
Guess       :       0.00u       0.00s       0.00w      1 call
Form G      :       0.00u       0.02s       0.00w     24 calls
JK: D       :       0.00u       0.00s       0.00w     24 calls
JK: USO2AO  :       0.00u       0.00s       0.00w     16 calls
JK: JK      :       0.00u       0.02s       0.00w     24 calls
JK: J       :       0.00u       0.00s       0.00w     16 calls
JK: J1      :       0.00u       0.00s       0.00w     32 calls
JK: J2      :       0.00u       0.00s       0.00w     32 calls
JK: K       :       0.00u       0.00s       0.00w     16 calls
JK: K1      :       0.00u       0.00s       0.00w     32 calls
JK: K2      :       0.00u       0.00s       0.00w     32 calls
JK: AO2USO  :       0.00u       0.00s       0.00w     16 calls
Form F      :       0.00u       0.00s       0.00w     24 calls
DIIS        :       0.05u       0.02s       0.00w     24 calls
DIISManager::add_entry:       0.00u       0.00s       0.00w     34 calls
Form C      :       0.02u       0.00s       0.00w     24 calls
Form D      :       0.00u       0.00s       0.00w     24 calls
DIISManager::extrapolate:       0.02u       0.02s       0.00w     27 calls
DIISManager::extrapolate: bMatrix setup:       0.00u       0.00s       0.00w     27 calls
DIISManager::extrapolate: bMatrix pseudoinverse:       0.02u       0.00s       0.00w     27 calls
DIISManager::extrapolate: form new data:       0.00u       0.02s       0.00w     27 calls
DCFTSolver::scf_guess:       0.00u       0.02s       0.00w      1 call
DCFTSolver::update_scf_density:       0.00u       0.00s       0.00w     15 calls
DCFTSolver::mp2_guess():       0.12u       0.12s       0.00w      1 call
DCFTSolver::transform_integrals():       1.52u       2.90s       7.00w     15 calls
DCFTSolver::build_denominators():       0.00u       0.00s       0.00w     15 calls
DCFTSolver::build_tau():       0.00u       0.00s       0.00w     14 calls
DCFTSolver::transform_tau():       0.00u       0.00s       0.00w     14 calls
DCFTSolver::process_so_ints:       0.42u       0.02s       0.00w     14 calls
DCFTSolver::half_transform:       0.03u       0.00s       0.00w     84 calls
DCFTSolver::compute_scf_energy:       0.00u       0.00s       0.00w     14 calls
DCFTSolver::build_intermediates():       0.12u       0.20s       1.00w     14 calls
DCFTSolver::compute_lambda_residual():       0.00u       0.00s       0.00w     14 calls
DCFTSolver::update_lambda_from_residual():       0.02u       0.03s       0.00w     14 calls
DCFTSolver::compute_dcft_energy():       0.00u       0.02s       0.00w     14 calls
DCFTSolver::correct_mo_phases():       0.00u       0.00s       0.00w     14 calls

***********************************************************

Host: Xiaos-MacBook-Pro.local

Timers On : Tue Apr 28 23:48:08 2015
Timers Off: Tue Apr 28 23:48:19 2015

Wall Time:       11.00 seconds

JK: (A|mn)  :       0.02u       0.00s       0.00w      1 call
JK: (A|Q)^-1/2:       0.08u       0.00s       0.00w      1 call
JK: (Q|mn)  :       0.00u       0.00s       0.00w      1 call
Form H      :       0.00u       0.00s       0.00w      1 call
Form S/X    :       0.00u       0.00s       0.00w      1 call
Guess       :       0.00u       0.00s       0.00w      1 call
Form G      :       0.03u       0.00s       0.00w     24 calls
JK: D       :       0.00u       0.00s       0.00w     24 calls
JK: USO2AO  :       0.00u       0.00s       0.00w     16 calls
JK: JK      :       0.03u       0.00s       0.00w     24 calls
JK: J       :       0.00u       0.00s       0.00w     16 calls
JK: J1      :       0.00u       0.00s       0.00w     32 calls
JK: J2      :       0.00u       0.00s       0.00w     32 calls
JK: K       :       0.03u       0.00s       0.00w     16 calls
JK: K1      :       0.03u       0.00s       0.00w     32 calls
JK: K2      :       0.00u       0.00s       0.00w     32 calls
JK: AO2USO  :       0.00u       0.00s       0.00w     16 calls
Form F      :       0.00u       0.00s       0.00w     24 calls
DIIS        :       0.00u       0.00s       0.00w     24 calls
DIISManager::add_entry:       0.00u       0.02s       0.00w     34 calls
Form C      :       0.02u       0.00s       0.00w     24 calls
Form D      :       0.00u       0.00s       0.00w     24 calls
DIISManager::extrapolate:       0.02u       0.00s       0.00w     27 calls
DIISManager::extrapolate: bMatrix setup:       0.02u       0.00s       0.00w     27 calls
DIISManager::extrapolate: bMatrix pseudoinverse:       0.00u       0.00s       0.00w     27 calls
DIISManager::extrapolate: form new data:       0.00u       0.00s       0.00w     27 calls
DCFTSolver::scf_guess:       0.00u       0.00s       0.00w      1 call
DCFTSolver::update_scf_density:       0.00u       0.00s       0.00w     15 calls
DCFTSolver::mp2_guess():       0.12u       0.13s       0.00w      1 call
DCFTSolver::transform_integrals():       1.45u       3.17s       6.00w     15 calls
DCFTSolver::build_denominators():       0.00u       0.00s       0.00w     15 calls
DCFTSolver::build_tau():       0.03u       0.00s       0.00w     14 calls
DCFTSolver::transform_tau():       0.00u       0.00s       0.00w     14 calls
DCFTSolver::process_so_ints:       0.42u       0.02s       0.00w     14 calls
DCFTSolver::half_transform:       0.00u       0.00s       0.00w     84 calls
DCFTSolver::compute_scf_energy:       0.00u       0.00s       0.00w     14 calls
DCFTSolver::build_intermediates():       0.07u       0.23s       0.00w     14 calls
DCFTSolver::compute_lambda_residual():       0.00u       0.00s       0.00w     14 calls
DCFTSolver::update_lambda_from_residual():       0.00u       0.07s       1.00w     14 calls
DCFTSolver::compute_dcft_energy():       0.02u       0.00s       1.00w     14 calls
DCFTSolver::correct_mo_phases():       0.00u       0.00s       0.00w     14 calls

***********************************************************

Host: Xiaos-MacBook-Pro.local

Timers On : Tue Apr 28 23:51:43 2015
Timers Off: Tue Apr 28 23:51:53 2015

Wall Time:       10.00 seconds

JK: (A|mn)  :       0.03u       0.00s       0.00w      1 call
JK: (A|Q)^-1/2:       0.07u       0.00s       0.00w      1 call
JK: (Q|mn)  :       0.00u       0.00s       0.00w      1 call
Form H      :       0.00u       0.00s       0.00w      1 call
Form S/X    :       0.00u       0.00s       0.00w      1 call
Guess       :       0.00u       0.00s       0.00w      1 call
Form G      :       0.00u       0.02s       0.00w     24 calls
JK: D       :       0.00u       0.00s       0.00w     24 calls
JK: USO2AO  :       0.00u       0.00s       0.00w     16 calls
JK: JK      :       0.00u       0.02s       0.00w     24 calls
JK: J       :       0.00u       0.00s       0.00w     16 calls
JK: J1      :       0.00u       0.00s       0.00w     32 calls
JK: J2      :       0.00u       0.00s       0.00w     32 calls
JK: K       :       0.00u       0.00s       0.00w     16 calls
JK: K1      :       0.00u       0.00s       0.00w     32 calls
JK: K2      :       0.00u       0.00s       0.00w     32 calls
JK: AO2USO  :       0.00u       0.00s       0.00w     16 calls
Form F      :       0.00u       0.00s       0.00w     24 calls
DIIS        :       0.03u       0.00s       0.00w     24 calls
DIISManager::add_entry:       0.00u       0.00s       0.00w     34 calls
Form C      :       0.02u       0.00s       0.00w     24 calls
Form D      :       0.00u       0.00s       0.00w     24 calls
DIISManager::extrapolate:       0.03u       0.00s       0.00w     27 calls
DIISManager::extrapolate: bMatrix setup:       0.00u       0.00s       0.00w     27 calls
DIISManager::extrapolate: bMatrix pseudoinverse:       0.02u       0.00s       0.00w     27 calls
DIISManager::extrapolate: form new data:       0.00u       0.00s       0.00w     27 calls
DCFTSolver::scf_guess:       0.00u       0.00s       0.00w      1 call
DCFTSolver::update_scf_density:       0.00u       0.00s       0.00w     15 calls
DCFTSolver::mp2_guess():       0.12u       0.12s       1.00w      1 call
DCFTSolver::transform_integrals():       1.53u       1.58s       6.00w     15 calls
DCFTSolver::build_denominators():       0.00u       0.00s       0.00w     15 calls
DCFTSolver::build_tau():       0.00u       0.02s       0.00w     14 calls
DCFTSolver::transform_tau():       0.00u       0.00s       0.00w     14 calls
DCFTSolver::process_so_ints:       0.32u       0.02s       0.00w     14 calls
DCFTSolver::half_transform:       0.03u       0.00s       0.00w     84 calls
DCFTSolver::compute_scf_energy:       0.00u       0.00s       0.00w     14 calls
DCFTSolver::build_intermediates():       0.17u       0.18s       0.00w     14 calls
DCFTSolver::compute_lambda_residual():       0.00u       0.00s       0.00w     14 calls
DCFTSolver::update_lambda_from_residual():       0.00u       0.02s       0.00w     14 calls
DCFTSolver::compute_dcft_energy():       0.02u       0.03s       0.00w     14 calls
DCFTSolver::correct_mo_phases():       0.00u       0.00s       0.00w     14 calls

***********************************************************

Host: Xiaos-MacBook-Pro.local

Timers On : Tue Apr 28 23:54:10 2015
Timers Off: Tue Apr 28 23:54:21 2015

Wall Time:       11.00 seconds

JK: (A|mn)  :       0.02u       0.00s       0.00w      1 call
JK: (A|Q)^-1/2:       0.08u       0.02s       0.00w      1 call
JK: (Q|mn)  :       0.00u       0.00s       0.00w      1 call
Form H      :       0.00u       0.00s       0.00w      1 call
Form S/X    :       0.00u       0.00s       0.00w      1 call
Guess       :       0.00u       0.00s       0.00w      1 call
Form G      :       0.03u       0.02s       0.00w     24 calls
JK: D       :       0.00u       0.00s       0.00w     24 calls
JK: USO2AO  :       0.00u       0.00s       0.00w     16 calls
JK: JK      :       0.02u       0.02s       0.00w     24 calls
JK: J       :       0.00u       0.00s       0.00w     16 calls
JK: J1      :       0.00u       0.00s       0.00w     32 calls
JK: J2      :       0.00u       0.00s       0.00w     32 calls
JK: K       :       0.02u       0.00s       0.00w     16 calls
JK: K1      :       0.02u       0.00s       0.00w     32 calls
JK: K2      :       0.00u       0.00s       0.00w     32 calls
JK: AO2USO  :       0.00u       0.00s       0.00w     16 calls
Form F      :       0.00u       0.00s       0.00w     24 calls
DIIS        :       0.02u       0.00s       0.00w     24 calls
DIISManager::add_entry:       0.00u       0.00s       0.00w     34 calls
Form C      :       0.00u       0.00s       0.00w     24 calls
Form D      :       0.00u       0.00s       0.00w     24 calls
DIISManager::extrapolate:       0.00u       0.00s       0.00w     27 calls
DIISManager::extrapolate: bMatrix setup:       0.00u       0.00s       0.00w     27 calls
DIISManager::extrapolate: bMatrix pseudoinverse:       0.00u       0.00s       0.00w     27 calls
[...]
Form S/X    :       0.00u       0.00s       0.00w      1 call
Guess       :       0.00u       0.00s       0.00w      1 call
Form G      :       0.15u       0.00s       1.00w     24 calls
JK: D       :       0.00u       0.00s       0.00w     24 calls
JK: USO2AO  :       0.00u       0.00s       0.00w     16 calls
JK: JK      :       0.02u       0.00s       0.00w     24 calls
JK: J       :       0.00u       0.00s       0.00w     16 calls
JK: J1      :       0.00u       0.00s       0.00w     16 calls
JK: J2      :       0.00u       0.00s       0.00w     16 calls
JK: K       :       0.02u       0.00s       0.00w     16 calls
JK: K1      :       0.02u       0.00s       0.00w     16 calls
JK: K2      :       0.00u       0.00s       0.00w     16 calls
JK: AO2USO  :       0.00u       0.00s       0.00w     16 calls
Form F      :       0.00u       0.00s       0.00w     24 calls
DIIS        :       0.00u       0.00s       0.00w     24 calls
DIISManager::add_entry:       0.00u       0.00s       0.00w     34 calls
Form C      :       0.00u       0.00s       0.00w     24 calls
Form D      :       0.00u       0.00s       0.00w     24 calls
DIISManager::extrapolate:       0.00u       0.00s       0.00w     27 calls
DIISManager::extrapolate: bMatrix setup:       0.00u       0.00s       0.00w     27 calls
DIISManager::extrapolate: bMatrix pseudoinverse:       0.00u       0.00s       0.00w     27 calls
DIISManager::extrapolate: form new data:       0.00u       0.00s       0.00w     27 calls
DCFTSolver::rhf_guess:       0.00u       0.00s       0.00w      1 call
DCFTSolver::update_rhf_density:       0.00u       0.00s       0.00w     15 calls
DCFTSolver::mp2_guess():       0.03u       0.03s       0.00w      1 call
DCFTSolver::transform_integrals():       0.42u       0.53s       1.00w     15 calls
DCFTSolver::build_denominators():       0.00u       0.00s       0.00w     15 calls
DCFTSolver::build_tau():       0.00u       0.00s       0.00w     14 calls
DCFTSolver::refine_tau():       0.00u       0.00s       0.00w     14 calls
DCFTSolver::transform_tau():       0.00u       0.00s       0.00w     14 calls
DCFTSolver::process_so_ints:       0.13u       0.00s       0.00w     14 calls
DCFTSolver::half_transform:       0.00u       0.00s       0.00w     28 calls
DCFTSolver::compute_scf_energy:       0.00u       0.00s       0.00w     14 calls
DCFTSolver::build_intermediates():       0.05u       0.07s       0.00w     14 calls
DCFTSolver::compute_lambda_residual():       0.00u       0.00s       0.00w     14 calls
DCFTSolver::update_lambda_from_residual():       0.02u       0.05s       1.00w     14 calls
DCFTSolver::compute_dcft_energy():       0.00u       0.03s       0.00w     14 calls
DCFTSolver::orbital_optimization:       0.17u       0.08s       1.00w     14 calls
DCFTSolver::correct_mo_phases():       0.00u       0.00s       0.00w     14 calls
DCFTSolver::compute_R_AA_and_BB:       0.00u       0.00s       0.00w     10 calls

***********************************************************

Host: Xiaos-MacBook-Pro.local

Timers On : Mon May  4 17:48:33 2015
Timers Off: Mon May  4 17:48:38 2015

Wall Time:        5.00 seconds

JK: (A|mn)  :       0.02u       0.00s       0.00w      1 call
JK: (A|Q)^-1/2:       0.08u       0.00s       0.00w      1 call
JK: (Q|mn)  :       0.00u       0.00s       0.00w      1 call
Form H      :       0.00u       0.00s       0.00w      1 call
Form S/X    :       0.00u       0.00s       0.00w      1 call
Guess       :       0.00u       0.00s       0.00w      1 call
Form G      :       0.13u       0.02s       0.00w     24 calls
JK: D       :       0.00u       0.00s       0.00w     24 calls
JK: USO2AO  :       0.00u       0.00s       0.00w     16 calls
JK: JK      :       0.00u       0.02s       0.00w     24 calls
JK: J       :       0.00u       0.00s       0.00w     16 calls
JK: J1      :       0.00u       0.00s       0.00w     16 calls
JK: J2      :       0.00u       0.00s       0.00w     16 calls
JK: K       :       0.00u       0.00s       0.00w     16 calls
JK: K1      :       0.00u       0.00s       0.00w     16 calls
JK: K2      :       0.00u       0.00s       0.00w     16 calls
JK: AO2USO  :       0.00u       0.00s       0.00w     16 calls
Form F      :       0.00u       0.00s       0.00w     24 calls
DIIS        :       0.03u       0.00s       0.00w     24 calls
DIISManager::add_entry:       0.00u       0.00s       0.00w     34 calls
Form C      :       0.00u       0.00s       0.00w     24 calls
Form D      :       0.00u       0.00s       0.00w     24 calls
DIISManager::extrapolate:       0.02u       0.00s       0.00w     27 calls
DIISManager::extrapolate: bMatrix setup:       0.00u       0.00s       0.00w     27 calls
DIISManager::extrapolate: bMatrix pseudoinverse:       0.00u       0.00s       0.00w     27 calls
DIISManager::extrapolate: form new data:       0.02u       0.00s       0.00w     27 calls
DCFTSolver::rhf_guess:       0.00u       0.00s       0.00w      1 call
DCFTSolver::update_rhf_density:       0.02u       0.00s       0.00w     15 calls
DCFTSolver::mp2_guess():       0.03u       0.05s       0.00w      1 call
DCFTSolver::transform_integrals():       0.45u       0.50s       2.00w     15 calls
DCFTSolver::build_denominators():       0.00u       0.00s       0.00w     15 calls
DCFTSolver::build_tau():       0.00u       0.00s       0.00w     14 calls
DCFTSolver::refine_tau():       0.00u       0.00s       0.00w     14 calls
DCFTSolver::transform_tau():       0.00u       0.00s       0.00w     14 calls
DCFTSolver::process_so_ints:       0.13u       0.03s       0.00w     14 calls
DCFTSolver::half_transform:       0.00u       0.00s       0.00w     28 calls
DCFTSolver::compute_scf_energy:       0.00u       0.00s       0.00w     14 calls
DCFTSolver::build_intermediates():       0.07u       0.13s       1.00w     14 calls
DCFTSolver::compute_lambda_residual():       0.00u       0.00s       0.00w     14 calls
DCFTSolver::update_lambda_from_residual():       0.02u       0.00s       0.00w     14 calls
DCFTSolver::compute_dcft_energy():       0.00u       0.02s       0.00w     14 calls
DCFTSolver::orbital_optimization:       0.15u       0.08s       1.00w     14 calls
DCFTSolver::correct_mo_phases():       0.00u       0.00s       0.00w     14 calls
DCFTSolver::compute_R_AA_and_BB:       0.00u       0.00s       0.00w     10 calls

***********************************************************

Host: Xiaos-MacBook-Pro.local

Timers On : Mon May  4 17:49:31 2015
Timers Off: Mon May  4 17:49:36 2015

Wall Time:        5.00 seconds

JK: (A|mn)  :       0.03u       0.00s       0.00w      1 call
JK: (A|Q)^-1/2:       0.07u       0.00s       0.00w      1 call
JK: (Q|mn)  :       0.00u       0.00s       0.00w      1 call
Form H      :       0.02u       0.00s       0.00w      1 call
Form S/X    :       0.00u       0.00s       0.00w      1 call
Guess       :       0.00u       0.00s       0.00w      1 call
Form G      :       0.13u       0.02s       1.00w     24 calls
JK: D       :       0.00u       0.00s       0.00w     24 calls
JK: USO2AO  :       0.00u       0.00s       0.00w     16 calls
JK: JK      :       0.02u       0.02s       1.00w     24 calls
JK: J       :       0.02u       0.00s       0.00w     16 calls
JK: J1      :       0.02u       0.00s       0.00w     16 calls
JK: J2      :       0.00u       0.00s       0.00w     16 calls
JK: K       :       0.00u       0.00s       0.00w     16 calls
JK: K1      :       0.00u       0.00s       0.00w     16 calls
JK: K2      :       0.00u       0.00s       0.00w     16 calls
JK: AO2USO  :       0.00u       0.00s       0.00w     16 calls
Form F      :       0.00u       0.00s       0.00w     24 calls
DIIS        :       0.02u       0.00s       0.00w     24 calls
DIISManager::add_entry:       0.00u       0.00s       0.00w     34 calls
Form C      :       0.00u       0.00s       0.00w     24 calls
Form D      :       0.00u       0.00s       0.00w     24 calls
DIISManager::extrapolate:       0.05u       0.00s       0.00w     27 calls
DIISManager::extrapolate: bMatrix setup:       0.00u       0.00s       0.00w     27 calls
DIISManager::extrapolate: bMatrix pseudoinverse:       0.00u       0.00s       0.00w     27 calls
DIISManager::extrapolate: form new data:       0.05u       0.00s       0.00w     27 calls
DCFTSolver::rhf_guess:       0.02u       0.00s       0.00w      1 call
DCFTSolver::update_rhf_density:       0.02u       0.00s       0.00w     15 calls
DCFTSolver::mp2_guess():       0.03u       0.05s       0.00w      1 call
DCFTSolver::transform_integrals():       0.45u       0.50s       2.00w     15 calls
DCFTSolver::build_denominators():       0.00u       0.00s       0.00w     15 calls
DCFTSolver::build_tau():       0.02u       0.00s       0.00w     14 calls
DCFTSolver::refine_tau():       0.00u       0.00s       0.00w     14 calls
DCFTSolver::transform_tau():       0.00u       0.00s       0.00w     14 calls
DCFTSolver::process_so_ints:       0.13u       0.03s       0.00w     14 calls
DCFTSolver::half_transform:       0.00u       0.00s       0.00w     28 calls
DCFTSolver::compute_scf_energy:       0.00u       0.00s       0.00w     14 calls
DCFTSolver::build_intermediates():       0.03u       0.15s       0.00w     14 calls
DCFTSolver::compute_lambda_residual():       0.00u       0.00s       0.00w     14 calls
DCFTSolver::update_lambda_from_residual():       0.03u       0.00s       0.00w     14 calls
DCFTSolver::compute_dcft_energy():       0.00u       0.00s       0.00w     14 calls
DCFTSolver::orbital_optimization:       0.15u       0.08s       2.00w     14 calls
DCFTSolver::correct_mo_phases():       0.00u       0.00s       0.00w     14 calls
DCFTSolver::compute_R_AA_and_BB:       0.00u       0.00s       0.00w     10 calls

***********************************************************

Host: Xiaos-MacBook-Pro.local

Timers On : Tue May  5 14:14:11 2015
Timers Off: Tue May  5 14:14:17 2015

Wall Time:        6.00 seconds

JK: (A|mn)  :       0.02u       0.00s       0.00w      1 call
JK: (A|Q)^-1/2:       0.08u       0.00s       0.00w      1 call
JK: (Q|mn)  :       0.00u       0.00s       0.00w      1 call
Form H      :       0.00u       0.02s       0.00w      1 call
Form S/X    :       0.00u       0.00s       0.00w      1 call
Guess       :       0.00u       0.00s       0.00w      1 call
Form G      :       0.13u       0.00s       0.00w     24 calls
JK: D       :       0.00u       0.00s       0.00w     24 calls
JK: USO2AO  :       0.00u       0.00s       0.00w     16 calls
JK: JK      :       0.00u       0.00s       0.00w     24 calls
JK: J       :       0.00u       0.00s       0.00w     16 calls
JK: J1      :       0.00u       0.00s       0.00w     16 calls
JK: J2      :       0.00u       0.00s       0.00w     16 calls
JK: K       :       0.00u       0.00s       0.00w     16 calls
JK: K1      :       0.00u       0.00s       0.00w     16 calls
JK: K2      :       0.00u       0.00s       0.00w     16 calls
JK: AO2USO  :       0.00u       0.00s       0.00w     16 calls
Form F      :       0.00u       0.00s       0.00w     24 calls
DIIS        :       0.00u       0.00s       0.00w     24 calls
DIISManager::add_entry:       0.00u       0.00s       0.00w     34 calls
Form C      :       0.02u       0.00s       0.00w     24 calls
Form D      :       0.00u       0.00s       0.00w     24 calls
DIISManager::extrapolate:       0.02u       0.00s       0.00w     27 calls
DIISManager::extrapolate: bMatrix setup:       0.00u       0.00s       0.00w     27 calls
DIISManager::extrapolate: bMatrix pseudoinverse:       0.00u       0.00s       0.00w     27 calls
DIISManager::extrapolate: form new data:       0.02u       0.00s       0.00w     27 calls
DCFTSolver::rhf_guess:       0.00u       0.00s       0.00w      1 call
DCFTSolver::update_rhf_density:       0.00u       0.00s       0.00w     15 calls
DCFTSolver::mp2_guess():       0.03u       0.03s       1.00w      1 call
DCFTSolver::transform_integrals():       0.43u       0.92s       3.00w     15 calls
DCFTSolver::build_denominators():       0.00u       0.00s       0.00w     15 calls
DCFTSolver::build_tau():       0.00u       0.00s       0.00w     14 calls
DCFTSolver::refine_tau():       0.00u       0.00s       0.00w     14 calls
DCFTSolver::transform_tau():       0.00u       0.00s       0.00w     14 calls
DCFTSolver::process_so_ints:       0.17u       0.02s       1.00w     14 calls
DCFTSolver::half_transform:       0.00u       0.00s       0.00w     28 calls
DCFTSolver::compute_scf_energy:       0.00u       0.00s       0.00w     14 calls
DCFTSolver::build_intermediates():       0.05u       0.08s       0.00w     14 calls
DCFTSolver::compute_lambda_residual():       0.00u       0.00s       0.00w     14 calls
DCFTSolver::update_lambda_from_residual():       0.00u       0.02s       0.00w     14 calls
DCFTSolver::compute_dcft_energy():       0.00u       0.03s       0.00w     14 calls
DCFTSolver::orbital_optimization:       0.18u       0.18s       0.00w     14 calls
DCFTSolver::correct_mo_phases():       0.00u       0.00s       0.00w     14 calls
DCFTSolver::compute_R_AA_and_BB:       0.00u       0.00s       0.00w     10 calls

***********************************************************

Host: Xiaos-MacBook-Pro.local

Timers On : Tue May  5 14:14:46 2015
Timers Off: Tue May  5 14:14:52 2015

Wall Time:        6.00 seconds

JK: (A|mn)  :       0.02u       0.00s       0.00w      1 call
JK: (A|Q)^-1/2:       0.08u       0.00s       0.00w      1 call
JK: (Q|mn)  :       0.00u       0.00s       0.00w      1 call
Form H      :       0.00u       0.00s       0.00w      1 call
Form S/X    :       0.00u       0.00s       0.00w      1 call
Guess       :       0.00u       0.00s       0.00w      1 call
Form G      :       0.13u       0.02s       0.00w     24 calls
JK: D       :       0.00u       0.00s       0.00w     24 calls
JK: USO2AO  :       0.00u       0.00s       0.00w     16 calls
JK: JK      :       0.00u       0.02s       0.00w     24 calls
JK: J       :       0.00u       0.00s       0.00w     16 calls
JK: J1      :       0.00u       0.00s       0.00w     16 calls
JK: J2      :       0.00u       0.00s       0.00w     16 calls
JK: K       :       0.00u       0.00s       0.00w     16 calls
JK: K1      :       0.00u       0.00s       0.00w     16 calls
JK: K2      :       0.00u       0.00s       0.00w     16 calls
JK: AO2USO  :       0.00u       0.00s       0.00w     16 calls
Form F      :       0.00u       0.00s       0.00w     24 calls
DIIS        :       0.03u       0.00s       0.00w     24 calls
DIISManager::add_entry:       0.02u       0.02s       0.00w     34 calls
Form C      :       0.00u       0.00s       0.00w     24 calls
Form D      :       0.00u       0.00s       0.00w     24 calls
DIISManager::extrapolate:       0.03u       0.00s       0.00w     27 calls
DIISManager::extrapolate: bMatrix setup:       0.00u       0.00s       0.00w     27 calls
DIISManager::extrapolate: bMatrix pseudoinverse:       0.03u       0.00s       0.00w     27 calls
DIISManager::extrapolate: form new data:       0.00u       0.00s       0.00w     27 calls
DCFTSolver::rhf_guess:       0.02u       0.00s       0.00w      1 call
DCFTSolver::update_rhf_density:       0.00u       0.00s       0.00w     15 calls
DCFTSolver::mp2_guess():       0.03u       0.05s       1.00w      1 call
DCFTSolver::transform_integrals():       0.43u       0.80s       2.00w     15 calls
DCFTSolver::build_denominators():       0.00u       0.00s       0.00w     15 calls
DCFTSolver::build_tau():       0.02u       0.00s       0.00w     14 calls
DCFTSolver::refine_tau():       0.00u       0.00s       0.00w     14 calls
DCFTSolver::transform_tau():       0.00u       0.00s       0.00w     14 calls
DCFTSolver::process_so_ints:       0.13u       0.02s       1.00w     14 calls
DCFTSolver::half_transform:       0.00u       0.00s       0.00w     28 calls
DCFTSolver::compute_scf_energy:       0.00u       0.00s       0.00w     14 calls
DCFTSolver::build_intermediates():       0.03u       0.07s       1.00w     14 calls
DCFTSolver::compute_lambda_residual():       0.00u       0.00s       0.00w     14 calls
DCFTSolver::update_lambda_from_residual():       0.02u       0.03s       0.00w     14 calls
DCFTSolver::compute_dcft_energy():       0.03u       0.03s       0.00w     14 calls
DCFTSolver::orbital_optimization:       0.13u       0.18s       1.00w     14 calls
DCFTSolver::correct_mo_phases():       0.00u       0.00s       0.00w     14 calls
DCFTSolver::compute_R_AA_and_BB:       0.00u       0.00s       0.00w     10 calls

***********************************************************

Host: Xiaos-MacBook-Pro.local

Timers On : Tue May  5 14:29:51 2015
Timers Off: Tue May  5 14:29:57 2015

Wall Time:        6.00 seconds

JK: (A|mn)  :       0.03u       0.00s       0.00w      1 call
JK: (A|Q)^-1/2:       0.08u       0.00s       0.00w      1 call
JK: (Q|mn)  :       0.00u       0.00s       0.00w      1 call
Form H      :       0.00u       0.02s       0.00w      1 call
Form S/X    :       0.00u       0.00s       0.00w      1 call
Guess       :       0.00u       0.00s       0.00w      1 call
Form G      :       0.13u       0.00s       1.00w     24 calls
JK: D       :       0.00u       0.00s       0.00w     24 calls
JK: USO2AO  :       0.00u       0.00s       0.00w     16 calls
JK: JK      :       0.03u       0.00s       1.00w     24 calls
JK: J       :       0.02u       0.00s       0.00w     16 calls
JK: J1      :       0.02u       0.00s       0.00w     16 calls
JK: J2      :       0.00u       0.00s       0.00w     16 calls
JK: K       :       0.00u       0.00s       1.00w     16 calls
JK: K1      :       0.00u       0.00s       1.00w     16 calls
JK: K2      :       0.00u       0.00s       0.00w     16 calls
JK: AO2USO  :       0.00u       0.00s       0.00w     16 calls
Form F      :       0.00u       0.00s       0.00w     24 calls
DIIS        :       0.02u       0.00s       0.00w     24 calls
DIISManager::add_entry:       0.02u       0.00s       0.00w     34 calls
Form C      :       0.00u       0.00s       0.00w     24 calls
Form D      :       0.00u       0.00s       0.00w     24 calls
DIISManager::extrapolate:       0.00u       0.00s       0.00w     27 calls
DIISManager::extrapolate: bMatrix setup:       0.00u       0.00s       0.00w     27 calls
DIISManager::extrapolate: bMatrix pseudoinverse:       0.00u       0.00s       0.00w     27 calls
DIISManager::extrapolate: form new data:       0.00u       0.00s       0.00w     27 calls
DCFTSolver::rhf_guess:       0.02u       0.00s       0.00w      1 call
DCFTSolver::update_rhf_density:       0.00u       0.00s       0.00w     15 calls
DCFTSolver::mp2_guess():       0.03u       0.05s       0.00w      1 call
DCFTSolver::transform_integrals():       0.45u       0.52s       2.00w     15 calls
DCFTSolver::build_denominators():       0.00u       0.00s       0.00w     15 calls
DCFTSolver::build_tau():       0.00u       0.00s       0.00w     14 calls
DCFTSolver::refine_tau():       0.00u       0.00s       0.00w     14 calls
DCFTSolver::transform_tau():       0.00u       0.00s       0.00w     14 calls
DCFTSolver::process_so_ints:       0.15u       0.03s       0.00w     14 calls
DCFTSolver::half_transform:       0.00u       0.00s       0.00w     28 calls
DCFTSolver::compute_scf_energy:       0.00u       0.00s       0.00w     14 calls
DCFTSolver::build_intermediates():       0.08u       0.02s       2.00w     14 calls
DCFTSolver::compute_lambda_residual():       0.00u       0.02s       0.00w     14 calls
DCFTSolver::update_lambda_from_residual():       0.02u       0.03s       0.00w     14 calls
DCFTSolver::compute_dcft_energy():       0.00u       0.03s       0.00w     14 calls
DCFTSolver::orbital_optimization:       0.12u       0.13s       0.00w     14 calls
DCFTSolver::correct_mo_phases():       0.00u       0.00s       0.00w     14 calls
DCFTSolver::compute_R_AA_and_BB:       0.00u       0.00s       0.00w     10 calls

***********************************************************
